   This run of MOLCAS is using the pymolcas driver

                             OPE
                             OPE          NMOL  CASOP  ENMOLC A   SO
                 OPE        NMOLC        AS  OP EN  MO LC     AS  OP
                OPENM       OL CA        SO  PE NM  OL CA     SOP EN
                OP EN      MO   LC       AS  OP ENMOL  CASO   PENMOL
                OP  EN     MO   LC       AS  OP EN     MO     LC ASO
               OP   E  NMOL  C  AS       OP  EN MO     LC     AS  OP
               OP  E   NMO   LC AS        OPEN  MO     LCASOP EN   M
               O  PEN   MO  LCA  SO
            OPE   NMO   L   CAS    OP
        OPENMOL  CASOP     ENMOL   CASOPE
     OPENMOLCA   SOPENMOLCASOPEN   MOLCASOPE
    OPENMOLCAS   OP           EN   MOL    CAS
    OPENMOLCAS       OP  ENM        O     LCA
    OPENMOLCAS    OPEN  MOLCASO     P  E  NMO
    OPENMOLCAS     OP               E  N  MOL
    OPENMOLCA   SO           PENM   O  L  CAS    OPEN    MO    LCAS
    OPENMOLCA   SOP           ENM   O  L  CAS   OP  EN  MOLC  AS   O
    OPENMOLCA   SOPE           NM      O  LCA   S      OP  EN MO
    OPENMOLC                AS         O  PEN   M      OL  CA  SOPE
    OPENMO        LCASOPE  NMOL        C  ASO   P      ENMOLC     AS
    OPE     NMO      LCA  SO     P     E   NM   OL  CA SO  PE N   MO
          OPENMOLCA            SOPE   NMO        LCAS  O    P  ENMO
     OPENMOLCASOPENMOLCASOPENMOLCASOPENMOLCA
        OPENMOLCASOPENMOLCASOPENMOLCASOPE
            OPENMOLCASOPENMOLCASOPENM
               OPENMOLCASOPENMOLCA        version: v23.10 ?
                   OPENMOLCASO
                       OPE                tag:

 OpenMolcas is free software; you can redistribute it and/or modify it
 under the terms of the GNU Lesser General Public License version 2.1.
 OpenMolcas is distributed in the hope that it will be useful, but it
 is provided "as is" and without any express or implied warranties.
 For more details see the full text of the license in the file
 LICENSE or in <http://www.gnu.org/licenses/>.

                 Copyright (C) The OpenMolcas Authors
           For the author list and the recommended citation,
                   consult the file CONTRIBUTORS.md

           *************************************************
           * pymolcas version py2.25                       *
           *   build 2b27fa14244bdc32cb1957e6230cd793      *
           *   (after the EMIL interpreter by V. Veryazov) *
           *************************************************

configuration info
------------------
Host name: cpn-h22-29.core.ccr.buffalo.edu (Linux)
C Compiler ID: Intel
C flags: -O2 -xCore-AVX512 -ftz -fp-speculation=safe -fp-model source -std=gnu99 -gcc-sys -qopenmp
Fortran Compiler ID: Intel
Fortran flags: -O2 -xCore-AVX512 -ftz -fp-speculation=safe -fp-model source  -fpp -i8 -heap-arrays -qopenmp
Definitions: _MOLCAS_;_I8_;_LINUX_;_MOLCAS_MPP_;_SCALAPACK_;_GA_
Parallel: ON (GA=ON)


   -----------------------------------------------------------------------------------------------------------------------------------------------------
  |
  |           Project: tbhp_s0_sa4_casscf_opt
  |    Submitted from: /projects/academic/cyberwksp21/Students/hclifford/openmolcas/geom_opt/tbhp
  |      Scratch area: /projects/academic/cyberwksp21/Students/hclifford/openmolcas/geom_opt/tbhp/molcas_scratch_25171371/tbhp_s0_sa4_casscf_opt
  |   Save outputs to: /projects/academic/cyberwksp21/Students/hclifford/openmolcas/geom_opt/tbhp
  |            Molcas: /cvmfs/soft.ccr.buffalo.edu/versions/2023.01/easybuild/software/avx512/MPI/intel/2022.0.1/impi/2021.5.0/openmolcas/23.10
  |
  | Scratch area is empty
  |
  |    MOLCAS_DRIVER = /cvmfs/soft.ccr.buffalo.edu/versions/2023.01/easybuild/software/avx512/MPI/intel/2022.0.1/impi/2021.5.0/openmolcas/23.10/pymolcas
  |    MOLCAS_MOLDEN = ON
  |    MOLCAS_NPROCS = 1
  |     MOLCAS_PRINT = NORMAL
  |    MOLCAS_SOURCE = /cvmfs/soft.ccr.buffalo.edu/versions/2023.01/easybuild/software/avx512/MPI/intel/2022.0.1/impi/2021.5.0/openmolcas/23.10
  | MOLCAS_STRUCTURE = 0
  |
   -----------------------------------------------------------------------------------------------------------------------------------------------------

++ ---------   Input file   ---------

&GATEWAY
  Title = TBHP S0 geometry optimization with SA4-CASSCF(6e,4o)
  Coord = tbhp_unopt.xyz
  Basis = cc-pVDZ
  Group = NoSymm

>>> DO WHILE

  &SEWARD

  &RASSCF
    Title = TBHP SA4-CASSCF(6e,4o), optimize S0
    Spin = 1
    Nactel = 6 0 0
    Inactive = 22
    Ras2 = 4
    CiRoot = 4 4 1
    RlxRoot = 1
    LumOrb
    LevShift = 1.0

  &ALASKA

  &SLAPAF
    MaxStep = 0.10

>>> END DO

-- ----------------------------------

--- Start Module: gateway at Mon Jul  6 17:01:09 2026 ---
 
()()()()()()()()()()()()()()()()()()()()()()()()()()()()()()()()()()()()()()()()()()()()()()()()()()

                                              &GATEWAY

                       only a single process is used, running in SERIAL mode
                        available to each process: 12 GB of memory, 1 thread
                                            pid: 426777
()()()()()()()()()()()()()()()()()()()()()()()()()()()()()()()()()()()()()()()()()()()()()()()()()()
 
 
 Title:
                      TBHP S0 geometry optimization with SA4-CASSCF(6e,4o)              
 
 
++    Symmetry information:
      ---------------------
 
                    Character Table for C1 
 
                             E  
                    a        1  x, y, xy, Rz, z, xz, Ry, yz, Rx, I
--
 
 
++    Basis set information:
      ----------------------
 
 
      Basis set label: C.CC-PVDZ.........
 
      Electronic valence basis set:
      ------------------
      Associated Effective Charge   6.000000 au
      Associated Actual Charge      6.000000 au
      Nuclear Model: Point charge
 
      Shell  nPrim  nBasis  Cartesian Spherical Contaminant
         s       9       3        X                  
         p       4       2        X                  
         d       1       1                 X         
 
 
      Basis set label: H.CC-PVDZ.........
 
      Electronic valence basis set:
      ------------------
      Associated Effective Charge   1.000000 au
      Associated Actual Charge      1.000000 au
      Nuclear Model: Point charge
 
      Shell  nPrim  nBasis  Cartesian Spherical Contaminant
         s       4       2        X                  
         p       1       1        X                  
 
 
      Basis set label: O.CC-PVDZ.........
 
      Electronic valence basis set:
      ------------------
      Associated Effective Charge   8.000000 au
      Associated Actual Charge      8.000000 au
      Nuclear Model: Point charge
 
      Shell  nPrim  nBasis  Cartesian Spherical Contaminant
         s       9       3        X                  
         p       4       2        X                  
         d       1       1                 X         
 
 
      Basis set label: H.CC-PVDZ.........
 
      Electronic valence basis set:
      ------------------
      Associated Effective Charge   1.000000 au
      Associated Actual Charge      1.000000 au
      Nuclear Model: Point charge
 
      Shell  nPrim  nBasis  Cartesian Spherical Contaminant
         s       4       2        X                  
         p       1       1        X                  
 
 
      Basis set label: C.CC-PVDZ.........
 
      Electronic valence basis set:
      ------------------
      Associated Effective Charge   6.000000 au
      Associated Actual Charge      6.000000 au
      Nuclear Model: Point charge
 
      Shell  nPrim  nBasis  Cartesian Spherical Contaminant
         s       9       3        X                  
         p       4       2        X                  
         d       1       1                 X         
 
 
      Basis set label: H.CC-PVDZ.........
 
      Electronic valence basis set:
      ------------------
      Associated Effective Charge   1.000000 au
      Associated Actual Charge      1.000000 au
      Nuclear Model: Point charge
 
      Shell  nPrim  nBasis  Cartesian Spherical Contaminant
         s       4       2        X                  
         p       1       1        X                  
 
 
      Basis set label: C.CC-PVDZ.........
 
      Electronic valence basis set:
      ------------------
      Associated Effective Charge   6.000000 au
      Associated Actual Charge      6.000000 au
      Nuclear Model: Point charge
 
      Shell  nPrim  nBasis  Cartesian Spherical Contaminant
         s       9       3        X                  
         p       4       2        X                  
         d       1       1                 X         
 
 
      Basis set label: H.CC-PVDZ.........
 
      Electronic valence basis set:
      ------------------
      Associated Effective Charge   1.000000 au
      Associated Actual Charge      1.000000 au
      Nuclear Model: Point charge
 
      Shell  nPrim  nBasis  Cartesian Spherical Contaminant
         s       4       2        X                  
         p       1       1        X                  
--
 
 
++    Molecular structure info:
      -------------------------
 
                    ************************************************ 
                    **** Cartesian Coordinates / Bohr, Angstrom **** 
                    ************************************************ 
 
     Center  Label                x              y              z                     x              y              z
        1      C1              -0.054292       0.076364      -0.844897             -0.028730       0.040410      -0.447100
        2      C2               0.844169       2.811257      -0.841268              0.446715       1.487653      -0.445180
        3      H3               0.075997       3.827323       0.771352              0.040216       2.025332       0.408182
        4      H4               2.900095       2.889387      -0.765150              1.534664       1.528998      -0.404900
        5      O5               0.950421      -1.262159       1.313913              0.502941      -0.667906       0.695293
        6      O6              -0.041215      -0.121084       3.611728             -0.021810      -0.064075       1.911244
        7      H7               1.491170       0.600468       4.286205              0.789093       0.317754       2.268162
        8      C8               1.100166      -1.395277      -3.033029              0.582183      -0.738349      -1.605010
        9      H9               0.524253      -3.367585      -2.955947              0.277423      -1.782049      -1.564220
       10      H10              3.153900      -1.304085      -2.967626              1.668972      -0.690092      -1.570400
       11      H11              0.463280      -0.593079      -4.817063              0.245157      -0.313844      -2.549080
       12      C12             -2.926279      -0.101218      -0.866213             -1.548520      -0.053562      -0.458380
       13      H13             -3.515609      -2.071856      -0.853816             -1.860380      -1.096379      -0.451820
       14      H14             -3.681168       0.802089      -2.555155             -1.947990       0.424447      -1.352130
       15      H15             -3.718698       0.830499       0.783686             -1.967850       0.439481       0.414709
       16      H16              0.222791       3.766406      -2.555136              0.117896       1.993096      -1.352120
 
                    ************************************************* 
                    **** InterNuclear Distances / Bohr, Angstrom **** 
                    ************************************************* 
 
     Atom centers         Bohr        Angstrom
    7 H7        6 O6      1.823118        0.964753
   15 H15      12 C12     2.053823        1.086836
    3 H3        2 C2      2.054999        1.087459
    9 H9        8 C8      2.056116        1.088050
   10 H10       8 C8      2.056797        1.088410
   13 H13      12 C12     2.056910        1.088470
   11 H11       8 C8      2.057164        1.088604
   16 H16       2 C2      2.058097        1.089098
   14 H14      12 C12     2.058725        1.089430
    4 H4        2 C2      2.058817        1.089479
    5 O5        1 C1      2.731584        1.445492
    6 O6        5 O5      2.750517        1.455511
   12 C12       1 C1      2.877551        1.522734
    8 C8        1 C1      2.878615        1.523298
    2 C2        1 C1      2.878695        1.523340
   16 H16       3 H3      3.330283        1.762310
   16 H16       4 H4      3.337839        1.766308
   15 H15      13 H13     3.338611        1.766717
   15 H15      14 H14     3.339174        1.767015
   11 H11       9 H9      3.341459        1.768224
   11 H11      10 H10   
   10 H10       9 H9      3.342635        1.768846
   14 H14      13 H13     3.343878        1.769504
    4 H4        3 H3      3.349043        1.772237
    7 H7        5 O5      3.549128        1.878118
   11 H11       1 C1      4.061298        2.149146
   13 H13       1 C1      4.073775        2.155749
   14 H14       1 C1      4.075032        2.156414
   16 H16       1 C1      4.076531        2.157207
    4 H4        1 C1      4.080179        2.159138
   15 H15       1 C1      4.080303        2.159203
    9 H9        1 C1      4.080690        2.159408
    3 H3        1 C1      4.086432        2.162447
   10 H10       1 C1      4.087067        2.162783
    8 C8        5 O5      4.351558        2.302745
    6 O6        1 C1      4.461015        2.360668
   12 C12       5 O5      4.596687        2.432462
    5 O5        2 C2      4.609644        2.439318
   13 H13       9 H9      4.734803        2.505550
   15 H15       6 O6      4.735737        2.506044
   10 H10       4 H4      4.743472        2.510137
    8 C8        2 C2      4.750187        2.513691
   12 C12       8 C8      4.752046        2.514675
   12 C12       2 C2      4.764389        2.521206
    9 H9        5 O5      4.779764        2.529342
   10 H10       5 O5      4.815460        2.548232
   15 H15       3 H3      4.835371        2.558768
    6 O6        3 H3      4.865325        2.574619
   16 H16      14 H14     4.901843        2.593944
   16 H16      11 H11     4.917241        2.602092
   14 H14      11 H11     4.923328        2.605313
    7 H7        3 H3      4.976896        2.633660
   13 H13       5 O5      5.029918        2.661718
    5 O5        4 H4      5.035779        2.664820
   15 H15       5 O5      5.144028        2.722102
   13 H13       8 C8      5.148991        2.724729
    8 C8        4 H4      5.171206        2.736484
   10 H10       2 C2      5.176127        2.739088
   12 C12       9 H9      5.190599        2.746747
    5 O5        3 H3      5.192477        2.747741
   12 C12       3 H3      5.208523        2.756231
   12 C12      11 H11     5.228791        2.766957
   15 H15       2 C2      5.232937        2.769151
   14 H14       2 C2      5.239545        2.772648
   11 H11       2 C2      5.248002        2.777123
   16 H16       8 C8      5.257484        2.782141
   16 H16      12 C12     5.265702        2.786489
   14 H14       8 C8      5.283743        2.796036
   12 C12       6 O6      5.326907        2.818878
    7 H7        1 C1      5.384361        2.849281
    6 O6        2 C2      5.404785        2.860089
    7 H7        2 C2      5.621137        2.974577
--
 
 
            Nuclear Potential Energy            270.89056503 au
 
--- Stop Module: gateway at Mon Jul  6 17:01:11 2026 /rc=_RC_ALL_IS_WELL_ ---
*** files: xmldump
    saved to directory /projects/academic/cyberwksp21/Students/hclifford/openmolcas/geom_opt/tbhp
--- Module gateway spent 2 seconds ---

--- Start Module: seward at Mon Jul  6 17:01:11 2026 ---
 
()()()()()()()()()()()()()()()()()()()()()()()()()()()()()()()()()()()()()()()()()()()()()()()()()()

                                              &SEWARD

                       only a single process is used, running in SERIAL mode
                        available to each process: 12 GB of memory, 1 thread
                                            pid: 426863
()()()()()()()()()()()()()()()()()()()()()()()()()()()()()()()()()()()()()()()()()()()()()()()()()()
 
               SEWARD will generate:
                  Multipole Moment integrals up to order  2
                  Kinetic Energy integrals
                  Nuclear Attraction integrals (point charge)
                  One-Electron Hamiltonian integrals
                  Velocity integrals
                  Orbital angular momentum around ( 0.0001 -0.0001  0.0005 )
                  Velocity quadrupole around ( 0.0001 -0.0001  0.0005 )
                  Two-Electron Repulsion integrals
 
 Title:
                      TBHP S0 geometry optimization with SA4-CASSCF(6e,4o)              
 
 
                   Integrals are discarded if absolute value <: 0.10E-13
                   Integral cutoff threshold is set to       <: 0.10E-15
 
            Nuclear Potential Energy            270.89056503 au
 
 
      Basis set specifications :
      Symmetry species         a  
      Basis functions          134
 
 
      Input file to MOLDEN was generated!
 
--- Stop Module: seward at Mon Jul  6 17:01:40 2026 /rc=_RC_ALL_IS_WELL_ ---
*** files: tbhp_s0_sa4_casscf_opt.GssOrb tbhp_s0_sa4_casscf_opt.guessorb.h5 tbhp_s0_sa4_casscf_opt.guessorb.molden xmldump
    saved to directory /projects/academic/cyberwksp21/Students/hclifford/openmolcas/geom_opt/tbhp
--- Module seward spent 29 seconds ---

*** symbolic link created: INPORB -> tbhp_s0_sa4_casscf_opt.GssOrb
--- Start Module: rasscf at Mon Jul  6 17:01:40 2026 ---
 
()()()()()()()()()()()()()()()()()()()()()()()()()()()()()()()()()()()()()()()()()()()()()()()()()()

                                              &RASSCF

                       only a single process is used, running in SERIAL mode
                        available to each process: 12 GB of memory, 1 thread
                                            pid: 426974
()()()()()()()()()()()()()()()()()()()()()()()()()()()()()()()()()()()()()()()()()()()()()()()()()()
 
 
      Header of the ONEINT file:
      --------------------------
      
      Integrals generated by Gateway/Seward, Mon Jul  6 17:01:11 2026
 
 
      OrdInt status: non-squared
 
 
      Cartesian coordinates in Angstrom:
      -----------------------------------------------------
      No.  Label        X            Y            Z        
      -----------------------------------------------------
       1   C1        -0.02873000   0.04041000  -0.44710000
       2   C2         0.44671500   1.48765300  -0.44518000
       3   H3         0.04021600   2.02533200   0.40818200
       4   H4         1.53466400   1.52899800  -0.40490000
       5   O5         0.50294100  -0.66790600   0.69529300
       6   O6        -0.02181000  -0.06407500   1.91124400
       7   H7         0.78909300   0.31775400   2.26816200
       8   C8         0.58218300  -0.73834900  -1.60501000
       9   H9         0.27742300  -1.78204900  -1.56422000
      10   H10        1.66897200  -0.69009200  -1.57040000
      11   H11        0.24515700  -0.31384400  -2.54908000
      12   C12       -1.54852000  -0.05356200  -0.45838000
      13   H13       -1.86038000  -1.09637900  -0.45182000
      14   H14       -1.94799000   0.42444700  -1.35213000
      15   H15       -1.96785000   0.43948100   0.41470900
      16   H16        0.11789600   1.99309600  -1.35212000
      -----------------------------------------------------
      Nuclear repulsion energy =  270.89056503
 
++    Wave function specifications:
      -----------------------------
 
      Number of closed shell electrons          44
      Number of electrons in active shells       6
      Max number of holes in RAS1 space          0
      Max nr of electrons in RAS3 space          0
      Number of inactive orbitals               22
      Number of active orbitals                  4
      Number of secondary orbitals             108
      Spin quantum number                      0.0
      State symmetry                             1
--
 
++    Orbital specifications:
      -----------------------
 
      Symmetry species                           1
                                                 a
      Frozen orbitals                            0
      Inactive orbitals                         22
      Active orbitals                            4
      RAS1 orbitals                              0
      RAS2 orbitals                              4
      RAS3 orbitals                              0
      Secondary orbitals                       108
      Deleted orbitals                           0
      Number of basis functions                134
--
 
++    CI expansion specifications:
      ----------------------------
 
      Number of CSFs                            10
      Number of determinants                    10
      Number of root(s) required                 4
      Root chosen for geometry opt.              1
      CI roots used                              1     2     3     4
      weights                                0.250 0.250 0.250 0.250
      highest root included in the CI            4
      max. size of the explicit Hamiltonian     10
--
 
++    Optimization specifications:
      ----------------------------
 
      RASSCF algorithm: Conventional
      Maximum number of macro iterations       200
      Maximum number of SX iterations          100
      Threshold for RASSCF energy            0.100E-07
      Threshold for max MO rotation          0.100E+00
      Threshold for max BLB element          0.100E-03
      Level shift parameter                  0.100E+01
      Make Quasi-Newton update
--
 
      The MO-coefficients are taken from the file:
      INPORB                                                                                                                                                                                                                                                          
      Title:Guess orbitals                                                                 
 
      Total molecular charge    0.00
 
      ************************************************************************************************************************
      *                                                                                                                      *
      *                                            Wave function control section                                             *
      *                                                                                                                      *
      ************************************************************************************************************************
 
 
                                         RASSCF iterations: Energy and convergence statistics
                                         ----------------------------------------------------
 
      Iter CI   SX   CI       RASSCF       Energy    max ROT     max BLB   max BLB  Level Ln srch  Step   QN   Walltime
          iter iter root      energy       change     param      element    value   shift minimum  type update hh:mm:ss
 Nr of preliminary CI iterations:   1
        1   1  100    0  -305.94630717    0.00E+00   0.12E+00*  23  27 1  0.26E+00*  0.85   0.00    SX    NO    0:00:06
        2   1   47    0  -306.52736654   -0.58E+00*  0.92E-01   10  39 1  0.10E+00*  0.78   0.00    SX    NO    0:00:02
        3   1   11    0  -306.63091631   -0.10E+00*  0.77E-01   10  39 1  0.44E-01*  0.77   0.00    SX    NO    0:00:02
        4   1   11    0  -306.65723176   -0.26E-01*  0.70E-01   10  39 1  0.22E-01*  0.77   0.00    SX    NO    0:00:02
        5   1    9    0  -306.66693122   -0.97E-02*  0.82E-01   22  25 1 -0.16E-01*  0.76   2.50    LS   YES    0:00:02
        6   1    9    0  -306.67320318   -0.63E-02*  0.91E-01   22  25 1 -0.13E-01*  0.76   1.62    QN   YES    0:00:02
        7   1    9    0  -306.67660030   -0.34E-02*  0.13E+00*  22  25 1 -0.10E-01*  0.76   2.22    QN   YES    0:00:02
        8   1    9    0  -306.67989491   -0.33E-02*  0.10E+00   10  39 1 -0.82E-02*  0.76   1.77    QN   YES    0:00:02
        9   1    9    0  -306.68181603   -0.19E-02*  0.54E-01   10  39 1 -0.61E-02*  0.76   1.64    QN   YES    0:00:02
       10   1    9    0  -306.68289320   -0.11E-02* -0.28E-01   20  24 1  0.28E-02*  0.76   1.79    QN   YES    0:00:02
       11   1    9    0  -306.68374633   -0.85E-03* -0.50E-01   20  24 1  0.32E-02*  0.76   2.23    QN   YES    0:00:02
       12   1    9    0  -306.68499826   -0.13E-02* -0.13E+00*  10  39 1  0.52E-02*  0.74   2.50    QN   YES    0:00:02
       13   1   20    0  -306.68791804   -0.29E-02* -0.96E-01   10  39 1  0.13E-01*  0.76   1.14    QN   YES    0:00:02
       14   1   12    0  -306.68959698   -0.17E-02*  0.62E-01   10  39 1  0.16E-01*  0.75   1.11    QN   YES    0:00:01
       15   1   11    0  -306.69315710   -0.36E-02*  0.12E+00*  10  39 1  0.15E-01*  0.74   2.36    QN   YES    0:00:02
       16   1    9    0  -306.70044096   -0.73E-02*  0.11E+00*  10  39 1  0.97E-02*  0.67   1.68    QN   YES    0:00:02
       17   1   29    0  -306.70705292   -0.66E-02*  0.13E+00*  22  25 1 -0.12E-01*  0.67   1.44    QN   YES    0:00:02
       18   1   11    0  -306.71239764   -0.53E-02* -0.99E-01    7  27 1 -0.11E-01*  0.68   1.26    QN   YES    0:00:02
       19   1   31    0  -306.71643159   -0.40E-02*  0.82E-01   10  39 1 -0.14E-01*  0.70   1.29    QN   YES    0:00:02
       20   1   15    0  -306.72147314   -0.50E-02*  0.95E-01   10  39 1 -0.14E-01*  0.71   1.56    QN   YES    0:00:02
       21   1   11    0  -306.72726060   -0.58E-02*  0.64E-01   12  23 1 -0.99E-02*  0.71   1.85    QN   YES    0:00:02
       22   1    9    0  -306.73083193   -0.36E-02*  0.28E-01   12  26 1  0.60E-02*  0.71   1.49    LS   YES    0:00:02
       23   1    9    0  -306.73126665   -0.43E-03*  0.16E-01   12  26 1  0.50E-02*  0.71   1.13    QN   YES    0:00:02
       24   1    9    0  -306.73174825   -0.48E-03*  0.11E-01   26  28 1 -0.28E-02*  0.71   1.70    QN   YES    0:00:02
       25   1    8    0  -306.73200190   -0.25E-03* -0.57E-02   26  28 1 -0.17E-02*  0.71   1.06    QN   YES    0:00:02
       26   1    8    0  -306.73204099   -0.39E-04* -0.35E-02   26  28 1 -0.14E-02*  0.71   1.41    QN   YES    0:00:02
       27   1    8    0  -306.73206245   -0.21E-04*  0.24E-02   26  28 1 -0.95E-03*  0.71   1.63    QN   YES    0:00:02
       28   1    7    0  -306.73207276   -0.10E-04* -0.15E-02   26  28 1 -0.46E-03*  0.71   1.45    QN   YES    0:00:02
       29   1    7    0  -306.73207694   -0.42E-05* -0.11E-02   26  27 1  0.19E-03*  0.71   1.64    QN   YES    0:00:02
       30   1    7    0  -306.73207915   -0.22E-05*  0.70E-03   26  27 1  0.24E-03*  0.71   1.44    QN   YES    0:00:02
       31   1    7    0  -306.73207997   -0.82E-06*  0.56E-03   26  27 1  0.19E-03*  0.71   1.58    QN   YES    0:00:02
       32   1    6    0  -306.73208036   -0.39E-06*  0.25E-03   26  27 1  0.12E-03*  0.71   1.48    QN   YES    0:00:02
       33   1    6    0  -306.73208050   -0.14E-06*  0.13E-03   26  28 1  0.53E-04   0.71   1.45    QN   YES    0:00:02
       34   1    6    0  -306.73208055   -0.47E-07*  0.67E-04   26  28 1  0.32E-04   0.71   1.43    QN   YES    0:00:02
       35   1    6    0  -306.73208057   -0.16E-07*  0.49E-04   26  28 1  0.20E-04   0.71   1.52    QN   YES    0:00:02
       36   1    5    0  -306.73208057   -0.65E-08   0.33E-04   26  28 1  0.11E-04   0.71   1.47    QN   YES    0:00:02
      Convergence after 36 iterations
       37   1    5    0  -306.73208058   -0.23E-08   0.33E-04   26  27 1 -0.77E-05   0.71   1.47    QN   YES    0:00:02
 
      ************************************************************************************************************************
                                                      Wave function printout:
                       occupation of active orbitals, and spin coupling of open shells (u,d: Spin up or down)
      ************************************************************************************************************************
 
      Note: transformation to natural orbitals
      has been made, which may change the order of the CSFs.
 
      printout of CI-coefficients larger than  0.05 for root  1
      energy=    -306.971425
      conf/sym  1111     Coeff  Weight
             1  2220  -0.97909 0.95862
             6  u22d   0.05566 0.00310
             8  2022   0.19131 0.03660
 
      printout of CI-coefficients larger than  0.05 for root  2
      energy=    -306.732798
      conf/sym  1111     Coeff  Weight
             1  2220   0.05502 0.00303
             2  22ud  -0.09379 0.00880
             5  2ud2   0.28942 0.08376
             6  u22d   0.94820 0.89907
 
      printout of CI-coefficients larger than  0.05 for root  3
      energy=    -306.686509
      conf/sym  1111     Coeff  Weight
             2  22ud   0.93070 0.86621
             6  u22d   0.09442 0.00891
             9  ud22   0.35173 0.12371
 
      printout of CI-coefficients larger than  0.05 for root  4
      energy=    -306.537591
      conf/sym  1111     Coeff  Weight
             3  2202   0.60156 0.36188
             6  u22d  -0.05637 0.00318
            10  0222  -0.79637 0.63421
 
      Natural orbitals and occupation numbers for root  1
      sym 1:   1.998207   1.925856   1.999229   0.076708
 
      Natural orbitals and occupation numbers for root  2
      sym 1:   1.091135   1.923982   1.911490   1.073392
 
      Natural orbitals and occupation numbers for root  3
      sym 1:   1.876484   1.884402   1.135218   1.103895
 
      Natural orbitals and occupation numbers for root  4
      sym 1:   0.725134   1.999854   1.275217   1.999795
 
      ************************************************************************************************************************
      *                                                                                                                      *
      *                                                    Final results                                                     *
      *                                                                                                                      *
      ************************************************************************************************************************
 
 
++    Wave function specifications:
      -----------------------------
 
      Number of closed shell electrons          44
      Number of electrons in active shells       6
      Max number of holes in RAS1 space          0
      Max nr of electrons in RAS3 space          0
      Number of inactive orbitals               22
      Number of active orbitals                  4
      Number of secondary orbitals             108
      Spin quantum number                      0.0
      State symmetry                             1
--
 
++    Orbital specifications:
      -----------------------
 
      Symmetry species                           1
                                                 a
      Frozen orbitals                            0
      Inactive orbitals                         22
      Active orbitals                            4
      RAS1 orbitals                              0
      RAS2 orbitals                              4
      RAS3 orbitals                              0
      Secondary orbitals                       108
      Deleted orbitals                           0
      Number of basis functions                134
--
 
++    CI expansion specifications:
      ----------------------------
 
      Number of CSFs                            10
      Number of determinants                    10
      Number of root(s) required                 4
      CI roots used                              1     2     3     4
      weights                                0.250 0.250 0.250 0.250
      highest root included in the CI            4
      Root passed to geometry opt.               1
--
 
++    Final optimization conditions:
      ------------------------------
 
      Average CI energy                            -306.73208058
      RASSCF energy for state  1                   -306.97142458
      Super-CI energy                                -0.00000000
      RASSCF energy change                           -0.00000000
      Max change in MO coefficients               0.380E-04
      Max non-diagonal density matrix element     0.334E-04
      Maximum BLB matrix element                 -0.766E-05
      (orbital pair  26,  27 in symmetry   1)
      Norm of electronic gradient            0.145E+00
--
 
 
      Final state energy(ies):
      ------------------------
 
::    RASSCF root number  1 Total energy:   -306.97142458
::    RASSCF root number  2 Total energy:   -306.73279811
::    RASSCF root number  3 Total energy:   -306.68650866
::    RASSCF root number  4 Total energy:   -306.53759096
 
++    Molecular orbitals:
      -------------------
 
      Pseudonatural active orbitals and approximate occupation numbers
 
 
 
 
      Molecular orbitals for symmetry species 1: a  
 
 
      Orbital                 1         2         3         4         5         6         7         8         9        10
      Energy           -20.5697  -20.5574  -11.2853  -11.2273  -11.2191  -11.2162   -1.4020   -1.2192   -1.0526   -0.9461
      Occ. No.           2.0000    2.0000    2.0000    2.0000    2.0000    2.0000    2.0000    2.0000    2.0000    2.0000
 
     1 C1     1s        -0.0001   -0.0002   -1.0021    0.0053   -0.0047   -0.0045   -0.0060   -0.0107   -0.0167   -0.0007
     2 C1     2s        -0.0005   -0.0008   -0.0106   -0.0003    0.0004    0.0005    0.2056    0.3277    0.3820    0.0172
     3 C1     *s         0.0008    0.0044    0.0173   -0.0006    0.0006    0.0003   -0.0897   -0.0827    0.0146    0.0035
     4 C1     2px        0.0001    0.0001   -0.0003   -0.0001   -0.0003    0.0001    0.0347    0.0431   -0.0635   -0.1639
     5 C1     *px       -0.0005    0.0012   -0.0004   -0.0006   -0.0007    0.0004   -0.0207   -0.0153    0.0038    0.0077
     6 C1     2py       -0.0001   -0.0002    0.0003   -0.0003   -0.0000   -0.0002   -0.0456   -0.0564    0.0940   -0.1854
     7 C1     *py        0.0005   -0.0015    0.0005   -0.0006   -0.0004   -0.0005    0.0217    0.0267   -0.0076    0.0088
     8 C1     2pz       -0.0001    0.0005   -0.0009   -0.0000    0.0000   -0.0002    0.0885    0.0657   -0.1307   -0.0466
     9 C1     *pz        0.0016    0.0016    0.0005   -0.0004    0.0004   -0.0005   -0.0373   -0.0297    0.0230    0.0030
    10 C1     *d2-      -0.0001    0.0000    0.0000    0.0001   -0.0000    0.0001   -0.0062   -0.0058    0.0083   -0.0093
    11 C1     *d1-      -0.0001   -0.0001   -0.0000    0.0000   -0.0001   -0.0001   -0.0123   -0.0109    0.0151    0.0036
    12 C1     *d0       -0.0000    0.0002   -0.0000   -0.0001    0.0001   -0.0000    0.0050    0.0061   -0.0124    0.0037
    13 C1     *d1+       0.0001    0.0000    0.0000   -0.0001   -0.0000    0.0001    0.0093    0.0083   -0.0114   -0.0044
    14 C1     *d2+      -0.0000   -0.0000    0.0000   -0.0001   -0.0001    0.0000   -0.0017   -0.0019    0.0017    0.0235
    15 C2     1s         0.0000   -0.0001   -0.0052   -1.0019    0.0009    0.0006   -0.0013   -0.0021   -0.0127    0.0185
    16 C2     2s        -0.0000   -0.0002    0.0004   -0.0105   -0.0007   -0.0007    0.0477    0.1061    0.3831   -0.5842
    17 C2     *s        -0.0004    0.0001   -0.0040    0.0125    0.0015    0.0014   -0.0163   -0.0469   -0.1472    0.1764
    18 C2     2px        0.0000    0.0000    0.0001   -0.0000    0.0002   -0.0001   -0.0062   -0.0094   -0.0341   -0.0173
    19 C2     *px        0.0001   -0.0002    0.0004   -0.0003   -0.0009    0.0002    0.0022    0.0035    0.0198    0.0039
    20 C2     2py        0.0001    0.0002    0.0003   -0.0002    0.0000    0.0001   -0.0282   -0.0462   -0.0656   -0.0021
    21 C2     *py        0.0000    0.0000    0.0014   -0.0009   -0.0003   -0.0007    0.0046    0.0245    0.0334   -0.0141
    22 C2     2pz       -0.0000   -0.0000    0.0000    0.0001    0.0000    0.0001    0.0078    0.0029   -0.0155   -0.0067
    23 C2     *pz       -0.0001   -0.0003   -0.0003   -0.0002   -0.0001   -0.0006   -0.0006   -0.0018    0.0068    0.0040
    24 C2     *d2-      -0.0000    0.0000    0.0000    0.0001    0.0001   -0.0000    0.0015    0.0024    0.0058    0.0002
    25 C2     *d1-       0.0001    0.0000    0.0000   -0.0000   -0.0000    0.0001   -0.0017   -0.0005    0.0022    0.0002
    26 C2     *d0       -0.0000    0.0000   -0.0001   -0.0001   -0.0001    0.0000   -0.0027   -0.0040   -0.0041    0.0008
    27 C2     *d1+      -0.0000    0.0001   -0.0000   -0.0000    0.0000   -0.0001   -0.0014   -0.0011    0.0010    0.0000
    28 C2     *d2+      -0.0000    0.0001   -0.0001   -0.0002    0.0001   -0.0001   -0.0038   -0.0053   -0.0055    0.0015
    29 H3     1s        -0.0001    0.0001    0.0003   -0.0001   -0.0002   -0.0000    0.0120    0.0246    0.1329   -0.2466
    30 H3     *s         0.0002   -0.0001   -0.0000   -0.0010   -0.0001    0.0004   -0.0021   -0.0178   -0.0560    0.1063
    31 H3     *px        0.0000    0.0000    0.0001    0.0002    0.0001   -0.0000    0.0007    0.0009    0.0036   -0.0082
    32 H3     *py        0.0000    0.0001    0.0001   -0.0002    0.0000    0.0000   -0.0016   -0.0012   -0.0067    0.0095
    33 H3     *pz        0.0000   -0.0000    0.0000   -0.0004    0.0000    0.0000   -0.0005   -0.0018   -0.0093    0.0155
    34 H4     1s         0.0001   -0.0001    0.0004   -0.0001   -0.0000   -0.0002    0.0124    0.0311    0.1277   -0.2592
    35 H4     *s        -0.0002    0.0001   -0.0002   -0.0011    0.0004   -0.0001   -0.0057   -0.0141   -0.0589    0.1124
    36 H4     *px        0.0000    0.0000    0.0000   -0.0005    0.0000   -0.0000   -0.0015   -0.0030   -0.0115    0.0202
    37 H4     *py        0.0000    0.0001    0.0001    0.0001   -0.0000    0.0000   -0.0006   -0.0011   -0.0013   -0.0004
    38 H4     *pz       -0.0000   -0.0000    0.0000   -0.0000    0.0000    0.0001    0.0004    0.0006   -0.0010    0.0005
    39 O5     1s         0.0043    1.0009    0.0000    0.0000   -0.0000   -0.0000   -0.0095   -0.0033    0.0019    0.0002
    40 O5     2s        -0.0001    0.0041   -0.0002    0.0002   -0.0002   -0.0001    0.6189    0.4990   -0.4013   -0.0245
    41 O5     *s         0.0002   -0.0068   -0.0009   -0.0000    0.0001    0.0001    0.0000    0.0068   -0.0364   -0.0049
    42 O5     2px        0.0002   -0.0008    0.0002   -0.0000    0.0001   -0.0000   -0.0045   -0.0296   -0.0415   -0.0240
    43 O5     *px       -0.0000    0.0015   -0.0002    0.0000   -0.0002    0.0002    0.0090   -0.0019    0.0011    0.0112
    44 O5     2py       -0.0001    0.0011   -0.0003    0.0001   -0.0001    0.0000    0.0151    0.0342    0.0540   -0.0195
    45 O5     *py        0.0001   -0.0020    0.0002   -0.0001    0.0001   -0.0002   -0.0075    0.0022   -0.0040    0.0104
    46 O5     2pz       -0.0003   -0.0009    0.0002   -0.0000    0.0000    0.0001   -0.0604   -0.1369   -0.0022   -0.0014
    47 O5     *pz        0.0009    0.0015    0.0002    0.0000    0.0000   -0.0007   -0.0043    0.0265    0.0044    0.0011
    48 O5     *d2-       0.0000    0.0000   -0.0001   -0.0000    0.0000    0.0000   -0.0041   -0.0024   -0.0016   -0.0005
    49 O5     *d1-       0.0000    0.0001   -0.0001    0.0000   -0.0000    0.0000    0.0002   -0.0095   -0.0013    0.0012
    50 O5     *d0        0.0000   -0.0001    0.0002    0.0000   -0.0000    0.0001    0.0073    0.0010    0.0001    0.0008
    51 O5     *d1+      -0.0000   -0.0001    0.0001   -0.0000    0.0000   -0.0000    0.0005    0.0064    0.0011    0.0012
    52 O5     *d2+      -0.0000    0.0000   -0.0000    0.0000    0.0000    0.0000   -0.0015   -0.0001   -0.0007    0.0022
    53 O6     1s         1.0006   -0.0043    0.0002    0.0000    0.0000   -0.0001   -0.0048    0.0032    0.0005   -0.0002
    54 O6     2s         0.0028   -0.0002    0.0006    0.0001   -0.0000   -0.0002    0.6013   -0.6566    0.1559    0.0247
    55 O6     *s        -0.0032    0.0006   -0.0012   -0.0002   -0.0002    0.0007   -0.0620    0.0230   -0.0015    0.0055
    56 O6     2px        0.0018   -0.0002   -0.0000    0.0000    0.0000   -0.0000    0.0278   -0.0595    0.0156   -0.0150
    57 O6     *px       -0.0016    0.0001   -0.0000   -0.0002   -0.0002    0.0002   -0.0383    0.0375   -0.0048    0.0003
    58 O6     2py        0.0007    0.0002   -0.0000    0.0000    0.0000    0.0000    0.0318   -0.0625    0.0349   -0.0058
    59 O6     *py       -0.0002   -0.0001   -0.0001   -0.0001   -0.0001   -0.0001   -0.0035    0.0177   -0.0109    0.0008
    60 O6     2pz        0.0003    0.0001   -0.0001   -0.0001    0.0001    0.0000    0.0342   -0.0985    0.0345   -0.0003
    61 O6     *pz        0.0007   -0.0004    0.0007    0.0001   -0.0002   -0.0002    0.0114    0.0282   -0.0108   -0.0023
    62 O6     *d2-       0.0001    0.0000   -0.0000   -0.0000   -0.0000   -0.0000    0.0004   -0.0037    0.0023   -0.0002
    63 O6     *d1-       0.0000    0.0000    0.0000    0.0000   -0.0000    0.0000    0.0042   -0.0001   -0.0021    0.0003
    64 O6     *d0       -0.0001    0.0001   -0.0001    0.0000    0.0000    0.0000    0.0027    0.0031   -0.0020    0.0001
    65 O6     *d1+       0.0001   -0.0000   -0.0000   -0.0000   -0.0000   -0.0000   -0.0012   -0.0045    0.0033    0.0006
    66 O6     *d2+       0.0001    0.0000   -0.0000   -0.0000   -0.0000    0.0000    0.0014   -0.0026    0.0008   -0.0002
    67 H7     1s         0.0001   -0.0001    0.0002    0.0003    0.0003   -0.0001    0.2170   -0.2936    0.0852   -0.0042
    68 H7     *s         0.0004    0.0002   -0.0002   -0.0002   -0.0001    0.0001   -0.0999    0.1390   -0.0424    0.0009
    69 H7     *px        0.0007   -0.0000   -0.0000   -0.0000   -0.0001    0.0000   -0.0236    0.0293   -0.0077   -0.0000
    70 H7     *py        0.0003   -0.0000    0.0000   -0.0000   -0.0000    0.0000   -0.0101    0.0130   -0.0029   -0.0002
    71 H7     *pz        0.0002   -0.0000   -0.0001   -0.0000   -0.0000    0.0000   -0.0089    0.0110   -0.0033    0.0003
    72 C8     1s        -0.0001    0.0000   -0.0044    0.0010   -0.0033    1.0020   -0.0015   -0.0039   -0.0101   -0.0055
    73 C8     2s        -0.0004   -0.0000    0.0000    0.0007   -0.0007    0.0106    0.0364    0.1299    0.3100    0.1765
    74 C8     *s         0.0015   -0.0010   -0.0026   -0.0013    0.0014   -0.0127   -0.0175   -0.0495   -0.1110   -0.0560
    75 C8     2px       -0.0000    0.0001    0.0001    0.0000    0.0002    0.0001   -0.0048   -0.0176   -0.0386   -0.0331
    76 C8     *px       -0.0002   -0.0000    0.0003   -0.0001   -0.0009    0.0005    0.0040    0.0051    0.0162    0.0168
    77 C8     2py        0.0000   -0.0001   -0.0002    0.0002   -0.0000   -0.0000    0.0061    0.0221    0.0512   -0.0235
    78 C8     *py        0.0003    0.0000   -0.0005   -0.0009    0.0001   -0.0006   -0.0046   -0.0068   -0.0218    0.0095
    79 C8     2pz       -0.0000   -0.0002   -0.0002    0.0000   -0.0000   -0.0003    0.0154    0.0506    0.0386    0.0026
    80 C8     *pz        0.0005   -0.0005   -0.0008   -0.0001    0.0002   -0.0007    0.0006   -0.0180   -0.0216   -0.0061
    81 C8     *d2-      -0.0000   -0.0000   -0.0000   -0.0000   -0.0000    0.0001   -0.0005   -0.0018   -0.0043   -0.0007
    82 C8     *d1-       0.0000   -0.0001    0.0001   -0.0001    0.0000   -0.0002    0.0031    0.0060    0.0062   -0.0011
    83 C8     *d0        0.0000    0.0000    0.0001    0.0001   -0.0001   -0.0001    0.0026    0.0024    0.0007    0.0001
    84 C8     *d1+      -0.0000    0.0001   -0.0001    0.0000   -0.0000    0.0001   -0.0024   -0.0048   -0.0047   -0.0027
    85 C8     *d2+      -0.0000   -0.0000   -0.0000    0.0001    0.0001    0.0000   -0.0002   -0.0003   -0.0012    0.0017
    86 H9     1s        -0.0001    0.0001    0.0003    0.0000   -0.0002    0.0002    0.0073    0.0376    0.0994    0.0966
    87 H9     *s         0.0001   -0.0001   -0.0001   -0.0004   -0.0001    0.0010   -0.0016   -0.0164   -0.0459   -0.0450
    88 H9     *px        0.0000    0.0000    0.0000    0.0000    0.0001   -0.0002    0.0003    0.0010    0.0015    0.0020
    89 H9     *py       -0.0000   -0.0000   -0.0000    0.0000   -0.0000   -0.0004    0.0011    0.0035    0.0090    0.0060
    90 H9     *pz       -0.0000   -0.0001   -0.0001   -0.0000   -0.0000    0.0001    0.0005    0.0011   -0.0001   -0.0018
    91 H10    1s        -0.0001    0.0001    0.0003    0.0002   -0.0000    0.0002    0.0075    0.0369    0.1010    0.0500
    92 H10    *s         0.0001   -0.0001   -0.0001    0.0001    0.0004    0.0011   -0.0018   -0.0159   -0.0464   -0.0188
    93 H10    *px        0.0000    0.0000    0.0000    0.0000    0.0000    0.0005   -0.0012   -0.0035   -0.0091   -0.0055
    94 H10    *py       -0.0000   -0.0000   -0.0000    0.0001    0.0000    0.0001    0.0000   -0.0002    0.0007   -0.0001
    95 H10    *pz       -0.0000   -0.0001   -0.0001    0.0000    0.0000    0.0001    0.0005    0.0010   -0.0000    0.0012
    96 H11    1s        -0.0001   -0.0000    0.0001    0.0002   -0.0002    0.0002    0.0156    0.0295    0.1180    0.0727
    97 H11    *s         0.0001    0.0001   -0.0001    0.0001   -0.0001    0.0011   -0.0003   -0.0167   -0.0580   -0.0319
    98 H11    *px       -0.0000   -0.0000    0.0000    0.0000    0.0001   -0.0002    0.0006    0.0010    0.0031    0.0010
    99 H11    *py        0.0000    0.0001   -0.0000    0.0001    0.0000    0.0003   -0.0007   -0.0012   -0.0038   -0.0029
   100 H11    *pz        0.0000    0.0000   -0.0001   -0.0000    0.0000   -0.0004    0.0009    0.0033    0.0084    0.0052
   101 C12    1s         0.0000   -0.0001   -0.0045    0.0013    1.0019    0.0029   -0.0004   -0.0029   -0.0114   -0.0143
   102 C12    2s         0.0001   -0.0002    0.0004    0.0007    0.0105   -0.0007    0.0495    0.1021    0.3550    0.4498
   103 C12    *s        -0.0008    0.0001   -0.0040   -0.0015   -0.0125    0.0014   -0.0240   -0.0397   -0.1410   -0.1407
   104 C12    2px       -0.0000   -0.0002   -0.0003    0.0001   -0.0001   -0.0001    0.0292    0.0464    0.0717    0.0060
   105 C12    *px       -0.0002    0.0001   -0.0015   -0.0006   -0.0010    0.0006   -0.0098   -0.0181   -0.0400   -0.0147
   106 C12    2py       -0.0000    0.0000   -0.0001    0.0001    0.0000    0.0001   -0.0011   -0.0027    0.0173   -0.0284
   107 C12    *py       -0.0001    0.0002   -0.0000   -0.0007   -0.0001   -0.0004   -0.0001    0.0012   -0.0090    0.0147
   108 C12    2pz       -0.0000   -0.0000    0.0000   -0.0000   -0.0002    0.0001    0.0079    0.0030   -0.0150   -0.0082
   109 C12    *pz       -0.0002   -0.0003   -0.0003    0.0001    0.0002   -0.0006   -0.0044    0.0021    0.0035   -0.0003
   110 C12    *d2-      -0.0000    0.0001   -0.0000   -0.0001   -0.0000   -0.0001   -0.0006   -0.0003    0.0024   -0.0020
   111 C12    *d1-       0.0000   -0.0001    0.0000    0.0000   -0.0000    0.0001    0.0007    0.0014   -0.0004   -0.0000
   112 C12    *d0       -0.0000    0.0000   -0.0001    0.0001    0.0001    0.0000   -0.0024   -0.0043   -0.0041   -0.0013
   113 C12    *d1+      -0.0001   -0.0000    0.0000   -0.0000    0.0000   -0.0001    0.0022    0.0005   -0.0023   -0.0010
   114 C12    *d2+      -0.0000   -0.0000    0.0001    0.0000   -0.0002    0.0000    0.0038    0.0060    0.0074    0.0017
   115 H13    1s         0.0001   -0.0001    0.0004    0.0000    0.0002   -0.0002    0.0122    0.0300    0.1161    0.2069
   116 H13    *s        -0.0001    0.0001   -0.0002   -0.0004    0.0011   -0.0001   -0.0046   -0.0144   -0.0530   -0.0915
   117 H13    *px       -0.0000   -0.0001   -0.0001    0.0000   -0.0001   -0.0000    0.0011    0.0015    0.0041    0.0032
   118 H13    *py        0.0000   -0.0000    0.0000    0.0000   -0.0005    0.0000    0.0012    0.0026    0.0099    0.0153
   119 H13    *pz       -0.0000   -0.0000    0.0000   -0.0000   -0.0000    0.0001    0.0008    0.0003   -0.0006   -0.0004
   120 H14    1s         0.0002   -0.0001    0.0002    0.0002    0.0002   -0.0002    0.0067    0.0268    0.1360    0.1833
   121 H14    *s        -0.0000    0.0001   -0.0003    0.0001    0.0012   -0.0001   -0.0061   -0.0116   -0.0636   -0.0806
   122 H14    *px        0.0000    0.0001   -0.0001    0.0000   -0.0001   -0.0000    0.0007    0.0017    0.0040    0.0057
   123 H14    *py       -0.0000   -0.0000   -0.0000    0.0001    0.0002    0.0000   -0.0001   -0.0013   -0.0048   -0.0073
   124 H14    *pz        0.0000    0.0000    0.0000    0.0000   -0.0004    0.0001    0.0004    0.0023    0.0094    0.0121
   125 H15    1s        -0.0001    0.0001    0.0003    0.0002    0.0002   -0.0000    0.0136    0.0222    0.1210    0.1738
   126 H15    *s         0.0002   -0.0000   -0.0001    0.0000    0.0010    0.0004   -0.0035   -0.0139   -0.0531   -0.0730
   127 H15    *px       -0.0000   -0.0001   -0.0001    0.0000   -0.0001   -0.0000    0.0015    0.0008    0.0051    0.0063
   128 H15    *py       -0.0000    0.0000   -0.0000    0.0001    0.0002    0.0000   -0.0011   -0.0011   -0.0042   -0.0071
   129 H15    *pz        0.0000   -0.0000    0.0000   -0.0000    0.0004    0.0000   -0.0003   -0.0021   -0.0086   -0.0116
   130 H16    1s         0.0002   -0.0001    0.0002   -0.0002   -0.0002   -0.0002    0.0073    0.0263    0.1478   -0.2400
   131 H16    *s         0.0000    0.0001   -0.0003   -0.0012   -0.0001   -0.0001   -0.0038   -0.0148   -0.0667    0.1028
   132 H16    *px        0.0000   -0.0000    0.0000    0.0002    0.0001   -0.0000    0.0000    0.0005    0.0037   -0.0062
   133 H16    *py       -0.0000   -0.0001    0.0001   -0.0001    0.0000    0.0001   -0.0007   -0.0019   -0.0054    0.0094
   134 H16    *pz        0.0000    0.0000    0.0000    0.0004   -0.0000    0.0001    0.0006    0.0020    0.0105   -0.0164
 
 
      Orbital                11        12        13        14        15        16        17        18        19        20
      Energy            -0.9391   -0.7485   -0.6663   -0.6324   -0.6089   -0.6032   -0.5474   -0.5412   -0.5201   -0.5186
      Occ. No.           2.0000    2.0000    2.0000    2.0000    2.0000    2.0000    2.0000    2.0000    2.0000    2.0000
 
     1 C1     1s         0.0002    0.0013   -0.0004    0.0022   -0.0005    0.0000    0.0001    0.0002   -0.0028    0.0007
     2 C1     2s        -0.0044   -0.5469   -0.0686   -0.0598   -0.0118   -0.0113    0.0130   -0.0144    0.0831   -0.0200
     3 C1     *s        -0.0056    0.0935   -0.0010   -0.0226    0.0029    0.0048    0.0035   -0.0007    0.0520   -0.0114
     4 C1     2px       -0.1718   -0.0136   -0.0654    0.1421    0.2281   -0.2005   -0.0197   -0.0947   -0.1430   -0.0076
     5 C1     *px        0.0059    0.0228    0.0201   -0.0375   -0.0171    0.0121   -0.0039   -0.0029    0.0454   -0.0075
     6 C1     2py        0.1099    0.0047   -0.0319   -0.1056    0.2783    0.1933   -0.0817    0.0229    0.1615   -0.0343
     7 C1     *py       -0.0027   -0.0327    0.0476    0.0162   -0.0275   -0.0288    0.0014   -0.0088   -0.0598    0.0104
     8 C1     2pz        0.1500   -0.0503    0.1302    0.2894    0.0219    0.1592   -0.0157    0.0839   -0.2545    0.0877
     9 C1     *pz       -0.0006    0.0145    0.0140   -0.0360    0.0050   -0.0148   -0.0024   -0.0065    0.0674   -0.0224
    10 C1     *d2-       0.0100    0.0010   -0.0009   -0.0018   -0.0014   -0.0093   -0.0130    0.0146    0.0128   -0.0035
    11 C1     *d1-      -0.0149    0.0046   -0.0034   -0.0051   -0.0040    0.0020   -0.0106   -0.0122    0.0294   -0.0081
    12 C1     *d0       -0.0147   -0.0061    0.0048    0.0055   -0.0008   -0.0031   -0.0072    0.0096   -0.0277    0.0056
    13 C1     *d1+       0.0114   -0.0037   -0.0013    0.0063   -0.0054    0.0033   -0.0158   -0.0081   -0.0233    0.0065
    14 C1     *d2+       0.0095    0.0008   -0.0015    0.0002    0.0028   -0.0040   -0.0005    0.0061    0.0043    0.0000
    15 C2     1s        -0.0039   -0.0093    0.0008   -0.0004    0.0031    0.0006   -0.0005   -0.0002   -0.0000    0.0000
    16 C2     2s         0.1380    0.1809    0.0333    0.0178   -0.0475   -0.0189   -0.0097   -0.0046    0.0287   -0.0070
    17 C2     *s        -0.0438   -0.0082   -0.0393    0.0135   -0.0163    0.0048    0.0053    0.0073    0.0014    0.0012
    18 C2     2px       -0.0321    0.0764   -0.0229    0.1599    0.0495   -0.3799   -0.2033    0.0646    0.1295    0.2898
    19 C2     *px        0.0155   -0.0290    0.0110   -0.0311   -0.0155    0.0722    0.0260   -0.0033   -0.0243   -0.0385
    20 C2     2py        0.0139    0.2408    0.0906    0.0287   -0.3139    0.0203    0.1382   -0.0075   -0.2003   -0.0496
    21 C2     *py       -0.0020   -0.0672   -0.0013   -0.0095    0.0630   -0.0082   -0.0240   -0.0061    0.0342    0.0037
    22 C2     2pz        0.0249   -0.0241    0.0603    0.2757   -0.0304    0.2012   -0.3950   -0.1329    0.1803   -0.2217
    23 C2     *pz       -0.0137    0.0062   -0.0312   -0.0584   -0.0052   -0.0393    0.0534    0.0152   -0.0324    0.0331
    24 C2     *d2-       0.0025   -0.0085   -0.0020   -0.0046    0.0068    0.0037   -0.0035    0.0029    0.0087    0.0016
    25 C2     *d1-      -0.0016   -0.0008   -0.0003    0.0032   -0.0006    0.0031   -0.0120   -0.0065    0.0120   -0.0104
    26 C2     *d0        0.0001    0.0094    0.0031   -0.0034   -0.0115    0.0058    0.0099   -0.0003   -0.0106   -0.0072
    27 C2     *d1+      -0.0009    0.0016   -0.0024   -0.0087    0.0006   -0.0066    0.0086    0.0026   -0.0026    0.0071
    28 C2     *d2+       0.0014    0.0123    0.0031    0.0049   -0.0080   -0.0090   -0.0051    0.0033    0.0044    0.0093
    29 H3     1s         0.0847    0.1562    0.1114    0.1751   -0.2177    0.2964   -0.1754   -0.1409    0.0149   -0.3355
    30 H3     *s        -0.0384   -0.0577   -0.0303   -0.0496    0.0682   -0.0912    0.0517    0.0391   -0.0040    0.0846
    31 H3     *px        0.0025    0.0053    0.0019    0.0072   -0.0034   -0.0007   -0.0079   -0.0014    0.0026   -0.0011
    32 H3     *py       -0.0011   -0.0011   -0.0026   -0.0050    0.0009   -0.0067    0.0072    0.0041   -0.0039    0.0076
    33 H3     *pz       -0.0049   -0.0094   -0.0038   -0.0021    0.0098   -0.0095   -0.0004    0.0026    0.0032    0.0096
    34 H4     1s         0.0364    0.1701    0.0001    0.1741    0.0135   -0.3776   -0.2248    0.0589    0.1631    0.2950
    35 H4     *s        -0.0128   -0.0513   -0.0054   -0.0550   -0.0034    0.1138    0.0648   -0.0157   -0.0324   -0.0750
    36 H4     *px       -0.0042   -0.0106   -0.0002   -0.0070    0.0011    0.0141    0.0078   -0.0017   -0.0054   -0.0101
    37 H4     *py       -0.0012    0.0035    0.0014   -0.0005   -0.0051    0.0012    0.0029   -0.0007   -0.0044   -0.0014
    38 H4     *pz        0.0008   -0.0011    0.0016    0.0055   -0.0003    0.0049   -0.0078   -0.0024    0.0034   -0.0050
    39 O5     1s        -0.0006    0.0009    0.0000    0.0006   -0.0002   -0.0002    0.0003   -0.0002    0.0026   -0.0008
    40 O5     2s         0.0387    0.2465   -0.0775   -0.1273    0.0154    0.0568   -0.0206    0.0299    0.0412   -0.0087
    41 O5     *s         0.0086    0.0519   -0.0278   -0.0593    0.0072    0.0208   -0.0124    0.0119   -0.0054    0.0030
    42 O5     2px       -0.0220    0.1778   -0.1681   -0.1470    0.0555    0.0294   -0.0154   -0.0266    0.2528   -0.0637
    43 O5     *px        0.0083    0.0046    0.0098   -0.0132   -0.0111    0.0090    0.0022    0.0084    0.0211   -0.0035
    44 O5     2py        0.0104   -0.2265    0.0524    0.2535    0.0173   -0.0093   -0.0107    0.0230   -0.3358    0.0851
    45 O5     *py       -0.0037   -0.0019   -0.0065    0.0088   -0.0159   -0.0083    0.0102    0.0004   -0.0220    0.0069
    46 O5     2pz        0.0030    0.1969   -0.0403   -0.2274    0.0324    0.0366   -0.0269   -0.0069    0.3159   -0.0793
    47 O5     *pz       -0.0028   -0.0128   -0.0097    0.0075   -0.0032   -0.0102    0.0040   -0.0030    0.0148   -0.0041
    48 O5     *d2-      -0.0015    0.0070   -0.0069   -0.0047    0.0004   -0.0004   -0.0002   -0.0003    0.0077   -0.0020
    49 O5     *d1-      -0.0006    0.0086   -0.0028   -0.0067   -0.0020    0.0007    0.0005   -0.0009    0.0083   -0.0017
    50 O5     *d0       -0.0028   -0.0009   -0.0034   -0.0002   -0.0014   -0.0035    0.0018   -0.0022    0.0011   -0.0006
    51 O5     *d1+       0.0008   -0.0063   -0.0054    0.0073   -0.0048    0.0025    0.0012    0.0029   -0.0064    0.0026
    52 O5     *d2+       0.0004    0.0023    0.0048   -0.0043   -0.0024   -0.0014    0.0009    0.0001    0.0030   -0.0011
    53 O6     1s         0.0012   -0.0015   -0.0010    0.0015   -0.0003   -0.0002    0.0002    0.0009    0.0001    0.0004
    54 O6     2s        -0.0297   -0.0693    0.2389   -0.0607    0.0242   -0.1046   -0.0131   -0.0633   -0.0207   -0.0087
    55 O6     *s        -0.0093   -0.0012    0.1322   -0.0514    0.0188   -0.0435   -0.0139   -0.0393   -0.0053   -0.0109
    56 O6     2px       -0.0308    0.0197   -0.6294    0.1899   -0.0940    0.1579    0.0812    0.1132   -0.0040    0.0357
    57 O6     *px        0.0051   -0.0047    0.0388   -0.0037    0.0024   -0.0036   -0.0016   -0.0039   -0.0024   -0.0019
    58 O6     2py       -0.0065   -0.0518   -0.1846    0.1337   -0.0360    0.0605    0.0245    0.0465   -0.0900    0.0334
    59 O6     *py        0.0006    0.0091    0.0204   -0.0156    0.0015   -0.0057   -0.0026   -0.0025    0.0047   -0.0032
    60 O6     2pz       -0.0140   -0.0122   -0.1528    0.0444   -0.0238    0.0275    0.0210    0.0281   -0.0079    0.0112
    61 O6     *pz        0.0117   -0.0027    0.0310   -0.0041    0.0057   -0.0015   -0.0070    0.0014   -0.0002   -0.0015
    62 O6     *d2-      -0.0006   -0.0034   -0.0080    0.0067   -0.0020    0.0018    0.0012    0.0019   -0.0051    0.0015
    63 O6     *d1-      -0.0000    0.0033   -0.0014   -0.0032   -0.0001    0.0002    0.0004    0.0004    0.0031   -0.0006
    64 O6     *d0        0.0008   -0.0009    0.0103   -0.0014    0.0015   -0.0016   -0.0015   -0.0009   -0.0036    0.0005
    65 O6     *d1+      -0.0003   -0.0033   -0.0032    0.0040   -0.0013    0.0005    0.0016    0.0013   -0.0027    0.0012
    66 O6     *d2+      -0.0007   -0.0002   -0.0125    0.0045   -0.0015    0.0030    0.0020    0.0025   -0.0007    0.0013
    67 H7     1s        -0.0378   -0.0332   -0.5432    0.2049   -0.0881    0.1245    0.0798    0.1040   -0.0501    0.0478
    68 H7     *s         0.0158    0.0254    0.2079   -0.0891    0.0332   -0.0448   -0.0325   -0.0379    0.0316   -0.0199
    69 H7     *px        0.0027    0.0028    0.0277   -0.0106    0.0046   -0.0055   -0.0040   -0.0048    0.0037   -0.0027
    70 H7     *py        0.0019   -0.0005    0.0170   -0.0034    0.0024   -0.0029   -0.0028   -0.0027   -0.0014   -0.0010
    71 H7     *pz        0.0011    0.0005    0.0190   -0.0059    0.0034   -0.0038   -0.0024   -0.0030   -0.0000   -0.0011
    72 C8     1s         0.0189   -0.0074   -0.0030   -0.0012   -0.0008   -0.0029    0.0010   -0.0015    0.0001    0.0001
    73 C8     2s        -0.6201    0.1586    0.0524    0.0524    0.0078    0.0506    0.0139   -0.0170    0.0147   -0.0047
    74 C8     *s         0.1990   -0.0445    0.0270    0.0201    0.0019    0.0080   -0.0021    0.0048   -0.0169    0.0017
    75 C8     2px       -0.0128    0.0859    0.0358    0.1808    0.3032    0.0157    0.2345   -0.0989   -0.0393   -0.2844
    76 C8     *px        0.0003   -0.0196   -0.0150   -0.0467   -0.0623    0.0026   -0.0311    0.0186    0.0075    0.0407
    77 C8     2py       -0.0025   -0.1131   -0.0975   -0.1831    0.2265   -0.1317   -0.1001    0.2495   -0.0974   -0.2493
    78 C8     *py        0.0078    0.0282    0.0264    0.0488   -0.0479    0.0207    0.0194   -0.0315    0.0126    0.0334
    79 C8     2pz       -0.0040   -0.1721   -0.0829    0.0470   -0.0731   -0.2413    0.2501   -0.3582    0.1919   -0.0636
    80 C8     *pz        0.0228    0.0440    0.0255   -0.0234    0.0185    0.0572   -0.0468    0.0636   -0.0312    0.0095
    81 C8     *d2-      -0.0000    0.0049    0.0034    0.0096   -0.0020    0.0025    0.0035   -0.0058   -0.0014    0.0050
    82 C8     *d1-      -0.0018   -0.0122   -0.0053   -0.0001    0.0012   -0.0111    0.0062   -0.0115    0.0066   -0.0042
    83 C8     *d0       -0.0004   -0.0052   -0.0013   -0.0049   -0.0004   -0.0032   -0.0098    0.0122   -0.0111    0.0017
    84 C8     *d1+       0.0004    0.0094    0.0019    0.0015    0.0074    0.0080   -0.0067    0.0075   -0.0061    0.0002
    85 C8     *d2+       0.0006    0.0012    0.0018    0.0024    0.0079   -0.0016    0.0065    0.0023   -0.0041   -0.0148
    86 H9     1s        -0.2574    0.1503    0.1013    0.1475   -0.2925    0.1336    0.0477   -0.2397    0.1341    0.3287
    87 H9     *s         0.1104   -0.0468   -0.0368   -0.0486    0.0914   -0.0398   -0.0143    0.0711   -0.0262   -0.0895
    88 H9     *px       -0.0062    0.0042    0.0023    0.0058    0.0013    0.0020    0.0055   -0.0056    0.0010   -0.0007
    89 H9     *py       -0.0198    0.0086    0.0048    0.0045   -0.0114    0.0060    0.0003   -0.0070    0.0048    0.0123
    90 H9     *pz        0.0009   -0.0033   -0.0016    0.0013    0.0002   -0.0046    0.0047   -0.0068    0.0034   -0.0026
    91 H10    1s        -0.2713    0.1482    0.0520    0.1942    0.3066    0.0249    0.2504   -0.1112   -0.0226   -0.3192
    92 H10    *s         0.1177   -0.0464   -0.0143   -0.0641   -0.0932   -0.0083   -0.0723    0.0315    0.0154    0.0803
    93 H10    *px        0.0210   -0.0093   -0.0026   -0.0077   -0.0120   -0.0025   -0.0085    0.0037    0.0008    0.0114
    94 H10    *py        0.0014   -0.0020   -0.0018   -0.0038    0.0040   -0.0020   -0.0026    0.0055   -0.0017   -0.0043
    95 H10    *pz        0.0015   -0.0031   -0.0016    0.0013   -0.0028   -0.0041    0.0049   -0.0066    0.0042    0.0000
    96 H11    1s        -0.2547    0.1538    0.0528   -0.1402    0.0643    0.1850   -0.3413    0.4585   -0.2221    0.0531
    97 H11    *s         0.1128   -0.0464   -0.0127    0.0303   -0.0146   -0.0435    0.0825   -0.1114    0.0432   -0.0094
    98 H11    *px       -0.0067    0.0043    0.0015    0.0009    0.0070    0.0031   -0.0006    0.0054   -0.0032   -0.0057
    99 H11    *py        0.0079   -0.0056   -0.0027   -0.0003    0.0032   -0.0062    0.0049   -0.0039    0.0007   -0.0059
   100 H11    *pz       -0.0183    0.0062    0.0018   -0.0051    0.0020    0.0053   -0.0111    0.0146   -0.0061    0.0012
   101 C12    1s        -0.0128   -0.0097    0.0011   -0.0003   -0.0027    0.0018    0.0006    0.0012   -0.0000    0.0000
   102 C12    2s         0.4183    0.1927   -0.0389    0.0559    0.0379   -0.0280    0.0115    0.0169    0.0288   -0.0032
   103 C12    *s        -0.1312   -0.0135    0.0080   -0.0042    0.0125   -0.0139   -0.0037   -0.0092    0.0007    0.0005
   104 C12    2px       -0.0038   -0.2416    0.0405   -0.1518   -0.2268    0.1295    0.0203    0.0787    0.1716   -0.0299
   105 C12    *px       -0.0099    0.0711    0.0138    0.0137    0.0497   -0.0339   -0.0122   -0.0247   -0.0281    0.0026
   106 C12    2py        0.0212   -0.0148   -0.0061   -0.0976    0.2601    0.2782    0.0176   -0.2211   -0.0174    0.3637
   107 C12    *py       -0.0086    0.0118   -0.0133    0.0276   -0.0577   -0.0482    0.0069    0.0339    0.0110   -0.0486
   108 C12    2pz        0.0238   -0.0255    0.1425    0.2021    0.0612    0.1038    0.2675    0.3654    0.2829    0.1080
   109 C12    *pz       -0.0159    0.0072   -0.0374   -0.0550   -0.0054   -0.0282   -0.0383   -0.0592   -0.0465   -0.0140
   110 C12    *d2-       0.0022   -0.0014   -0.0010   -0.0018   -0.0009    0.0008   -0.0026    0.0060    0.0062   -0.0083
   111 C12    *d1-       0.0005   -0.0017    0.0045    0.0075    0.0007    0.0033    0.0083    0.0121    0.0102    0.0038
   112 C12    *d0       -0.0006    0.0090   -0.0010    0.0009    0.0130    0.0019   -0.0016   -0.0089   -0.0062    0.0113
   113 C12    *d1+       0.0015    0.0002   -0.0008    0.0009   -0.0003    0.0009   -0.0072   -0.0070   -0.0134   -0.0007
   114 C12    *d2+       0.0009   -0.0146    0.0019   -0.0093   -0.0055    0.0102    0.0012   -0.0017    0.0054    0.0075
   115 H13    1s         0.1626    0.1731   -0.0245    0.1601   -0.1608   -0.3093   -0.0158    0.2039   -0.0090   -0.3621
   116 H13    *s        -0.0681   -0.0538    0.0065   -0.0525    0.0504    0.0967    0.0044   -0.0601    0.0101    0.0943
   117 H13    *px        0.0044   -0.0007    0.0003    0.0010   -0.0060   -0.0028    0.0001    0.0047    0.0031   -0.0058
   118 H13    *py        0.0131    0.0115   -0.0012    0.0066   -0.0033   -0.0122   -0.0003    0.0058   -0.0016   -0.0116
   119 H13    *pz        0.0007   -0.0011    0.0032    0.0045    0.0013    0.0028    0.0053    0.0076    0.0056    0.0027
   120 H14    1s         0.1708    0.1881   -0.1442   -0.1221    0.1687   -0.0257   -0.2261   -0.4390   -0.3356    0.0925
   121 H14    *s        -0.0738   -0.0631    0.0477    0.0294   -0.0427    0.0037    0.0569    0.1132    0.0674   -0.0204
   122 H14    *px        0.0054    0.0011   -0.0029   -0.0045    0.0000    0.0015   -0.0043   -0.0074   -0.0047    0.0015
   123 H14    *py       -0.0055   -0.0059    0.0039    0.0011    0.0010    0.0063    0.0058    0.0056    0.0063    0.0060
   124 H14    *pz        0.0121    0.0098   -0.0039   -0.0016    0.0094    0.0005   -0.0044   -0.0121   -0.0073    0.0061
   125 H15    1s         0.1960    0.1550    0.0807    0.1918    0.2662    0.1374    0.2217    0.1693    0.1816    0.2717
   126 H15    *s        -0.0859   -0.0566    0.0053   -0.0713   -0.0811   -0.0522   -0.0710   -0.0582   -0.0455   -0.0777
   127 H15    *px        0.0040   -0.0000    0.0042    0.0017    0.0021    0.0037    0.0050    0.0042    0.0065    0.0045
   128 H15    *py       -0.0069   -0.0049   -0.0030   -0.0070   -0.0016    0.0022   -0.0049   -0.0085   -0.0044    0.0006
   129 H15    *pz       -0.0126   -0.0100    0.0004   -0.0053   -0.0122   -0.0051   -0.0044   -0.0008   -0.0025   -0.0104
   130 H16    1s         0.0553    0.1875    0.0150   -0.2481   -0.1614   -0.0522    0.4703    0.0933   -0.3133    0.0828
   131 H16    *s        -0.0239   -0.0637   -0.0109    0.0744    0.0406    0.0160   -0.1285   -0.0225    0.0621   -0.0158
   132 H16    *px        0.0004    0.0050   -0.0006   -0.0013   -0.0015   -0.0086    0.0033    0.0029   -0.0009    0.0073
   133 H16    *py       -0.0020   -0.0023    0.0007    0.0067   -0.0007    0.0023   -0.0094   -0.0027    0.0047   -0.0035
   134 H16    *pz        0.0044    0.0098    0.0020   -0.0061   -0.0086    0.0014    0.0132    0.0012   -0.0089   -0.0015
 
 
      Orbital                21        22        23        24        25        26
      Energy            -0.4848   -0.4819   -0.3510   -0.0086   -0.0003   -0.0002
      Occ. No.           2.0000    2.0000    1.4215    1.9288    1.5780    1.0717
 
     1 C1     1s         0.0006    0.0007    0.0004    0.0053   -0.0008    0.0001
     2 C1     2s         0.0087    0.0034   -0.0480   -0.0033   -0.0520   -0.0189
     3 C1     *s        -0.0018   -0.0018   -0.0204   -0.0275   -0.0165    0.0371
     4 C1     2px       -0.3320    0.3390    0.0219   -0.0002   -0.0738   -0.0225
     5 C1     *px        0.0471   -0.0546   -0.0376   -0.0099    0.0084    0.0082
     6 C1     2py       -0.3542   -0.2698    0.0646   -0.0042   -0.0123    0.0273
     7 C1     *py        0.0549    0.0459   -0.0278   -0.0183    0.0035   -0.0001
     8 C1     2pz       -0.0499   -0.2696   -0.0765   -0.0731   -0.0787   -0.0887
     9 C1     *pz       -0.0030    0.0229    0.0040   -0.0480    0.0241   -0.0279
    10 C1     *d2-      -0.0135   -0.0193    0.0067    0.0084   -0.0046    0.0124
    11 C1     *d1-      -0.0019    0.0171   -0.0044    0.0145    0.0141    0.0127
    12 C1     *d0        0.0041    0.0197   -0.0015    0.0109   -0.0011    0.0244
    13 C1     *d1+      -0.0084   -0.0126   -0.0181   -0.0120    0.0076   -0.0092
    14 C1     *d2+       0.0318   -0.0113   -0.0187    0.0028    0.0191    0.0033
    15 C2     1s        -0.0004   -0.0004   -0.0017   -0.0010   -0.0008    0.0018
    16 C2     2s        -0.0982   -0.0341    0.0345   -0.0218   -0.0684   -0.0154
    17 C2     *s        -0.0246   -0.0069    0.0333    0.0256   -0.0155   -0.0356
    18 C2     2px        0.2545   -0.1183    0.0007    0.0092    0.0164    0.0109
    19 C2     *px       -0.0261    0.0119    0.0107   -0.0015    0.0023    0.0151
    20 C2     2py        0.3569    0.1936   -0.0949    0.0249    0.0742    0.0269
    21 C2     *py       -0.0430   -0.0210   -0.0281   -0.0078   -0.0316    0.0075
    22 C2     2pz        0.0895    0.1429   -0.0107   -0.0075   -0.0428   -0.0048
    23 C2     *pz       -0.0053   -0.0080   -0.0029    0.0190    0.0193   -0.0202
    24 C2     *d2-      -0.0051   -0.0142    0.0014   -0.0007    0.0008    0.0007
    25 C2     *d1-       0.0032    0.0128    0.0000   -0.0002    0.0001    0.0029
    26 C2     *d0        0.0033    0.0099   -0.0015    0.0016    0.0028    0.0006
    27 C2     *d1+      -0.0027   -0.0046   -0.0008    0.0003    0.0024    0.0024
    28 C2     *d2+       0.0206   -0.0085   -0.0019    0.0001    0.0024    0.0010
    29 H3     1s         0.1183    0.2856   -0.0220   -0.0004   -0.0293    0.0162
    30 H3     *s        -0.0235   -0.0508    0.0427   -0.0017    0.0353    0.0358
    31 H3     *px        0.0075    0.0013   -0.0004   -0.0004   -0.0010    0.0009
    32 H3     *py        0.0035   -0.0045   -0.0038   -0.0008   -0.0000   -0.0004
    33 H3     *pz       -0.0032   -0.0070    0.0021    0.0005    0.0019   -0.0007
    34 H4     1s         0.2652   -0.1537    0.0102   -0.0062   -0.0058   -0.0033
    35 H4     *s        -0.0451    0.0238   -0.0230    0.0043    0.0246   -0.0078
    36 H4     *px       -0.0081    0.0039   -0.0005   -0.0000    0.0003    0.0008
    37 H4     *py        0.0050    0.0056    0.0012    0.0000    0.0002    0.0007
    38 H4     *pz        0.0012    0.0032   -0.0014   -0.0005   -0.0007    0.0011
    39 O5     1s         0.0002    0.0008    0.0000   -0.0031   -0.0019    0.0032
    40 O5     2s         0.0002   -0.0156    0.0474    0.0024    0.0164    0.2840
    41 O5     *s        -0.0000   -0.0120    0.0349   -0.0404    0.0331    0.2379
    42 O5     2px       -0.0544    0.0197   -0.4917   -0.2714    0.5721   -0.2914
    43 O5     *px        0.0084   -0.0090   -0.0329   -0.0049    0.0409   -0.0794
    44 O5     2py       -0.0416   -0.0054   -0.4821    0.3605    0.3207    0.3846
    45 O5     *py        0.0103    0.0065   -0.0382    0.0203    0.0133    0.0828
    46 O5     2pz       -0.0158   -0.0459    0.0531    0.4693    0.0463    0.6055
    47 O5     *pz       -0.0003    0.0033    0.0000   -0.0403    0.0063    0.1445
    48 O5     *d2-      -0.0009    0.0026   -0.0035   -0.0095    0.0017   -0.0030
    49 O5     *d1-       0.0026   -0.0002    0.0071    0.0138    0.0038   -0.0085
    50 O5     *d0        0.0015    0.0065   -0.0062    0.0023   -0.0070   -0.0177
    51 O5     *d1+       0.0042   -0.0015    0.0024   -0.0091   -0.0041    0.0077
    52 O5     *d2+       0.0051   -0.0002    0.0069   -0.0037   -0.0098   -0.0013
    53 O6     1s         0.0002   -0.0011   -0.0015   -0.0005   -0.0026   -0.0022
    54 O6     2s        -0.0142    0.0205   -0.0521    0.0291    0.0067   -0.2899
    55 O6     *s        -0.0111    0.0221   -0.0242   -0.0533    0.0425   -0.2735
    56 O6     2px        0.0444   -0.0241   -0.0431    0.2998   -0.2245   -0.3026
    57 O6     *px       -0.0008    0.0030   -0.0018    0.0093   -0.0131   -0.0727
    58 O6     2py        0.0159   -0.0070    0.6189   -0.2179    0.5406    0.2665
    59 O6     *py       -0.0007   -0.0018    0.0406    0.0232    0.0269    0.0730
    60 O6     2pz        0.0090   -0.0127   -0.2956   -0.5494   -0.3121    0.6383
    61 O6     *pz       -0.0053   -0.0102   -0.0233    0.0189   -0.0188    0.1500
    62 O6     *d2-       0.0007   -0.0003    0.0106   -0.0051    0.0059   -0.0042
    63 O6     *d1-       0.0005   -0.0006    0.0035    0.0054   -0.0064    0.0133
    64 O6     *d0       -0.0007   -0.0008   -0.0001    0.0082    0.0009    0.0142
    65 O6     *d1+       0.0011    0.0002    0.0003   -0.0164   -0.0106   -0.0024
    66 O6     *d2+       0.0007   -0.0004   -0.0068    0.0051   -0.0018   -0.0085
    67 H7     1s         0.0449   -0.0196    0.1063   -0.0645   -0.1090    0.0188
    68 H7     *s        -0.0123    0.0073   -0.0322   -0.0091    0.0419    0.1326
    69 H7     *px       -0.0024    0.0011   -0.0095    0.0128    0.0024   -0.0139
    70 H7     *py       -0.0014    0.0005    0.0180   -0.0029    0.0188    0.0083
    71 H7     *pz       -0.0019    0.0002   -0.0093   -0.0093   -0.0093    0.0217
    72 C8     1s         0.0002    0.0006   -0.0001   -0.0002   -0.0005    0.0012
    73 C8     2s         0.0182    0.0961    0.0071    0.0619    0.0042    0.0879
    74 C8     *s         0.0016    0.0220    0.0021   -0.0052    0.0083    0.0274
    75 C8     2px        0.1742   -0.3026    0.0086   -0.0172   -0.0195   -0.0200
    76 C8     *px       -0.0137    0.0357    0.0129    0.0098   -0.0071   -0.0043
    77 C8     2py        0.2361    0.2799    0.0204    0.0214   -0.0013    0.0244
    78 C8     *py       -0.0248   -0.0342    0.0063   -0.0086   -0.0057    0.0035
    79 C8     2pz        0.0439    0.2442    0.0170    0.0774    0.0177    0.0842
    80 C8     *pz       -0.0067   -0.0385    0.0075   -0.0130    0.0110   -0.0405
    81 C8     *d2-      -0.0073   -0.0085   -0.0001    0.0015   -0.0013    0.0016
    82 C8     *d1-      -0.0024    0.0109    0.0008    0.0031   -0.0004    0.0046
    83 C8     *d0        0.0028    0.0146   -0.0019   -0.0009   -0.0018   -0.0077
    84 C8     *d1+      -0.0069   -0.0066    0.0007   -0.0021   -0.0010   -0.0039
    85 C8     *d2+       0.0217   -0.0075   -0.0020   -0.0000    0.0010    0.0004
    86 H9     1s        -0.3111   -0.1453   -0.0050    0.0170    0.0016    0.0411
    87 H9     *s         0.0607    0.0256    0.0245   -0.0162   -0.0128   -0.0291
    88 H9     *px        0.0009   -0.0078   -0.0005   -0.0003    0.0001   -0.0002
    89 H9     *py       -0.0101   -0.0025    0.0004    0.0013   -0.0002    0.0009
    90 H9     *pz        0.0003    0.0046    0.0024   -0.0002   -0.0017   -0.0009
    91 H10    1s         0.2316   -0.2722    0.0066    0.0175   -0.0043    0.0395
    92 H10    *s        -0.0458    0.0499   -0.0190   -0.0191    0.0211   -0.0287
    93 H10    *px       -0.0072    0.0081   -0.0001   -0.0013   -0.0004   -0.0006
    94 H10    *py        0.0057    0.0050    0.0001    0.0007    0.0005    0.0004
    95 H10    *pz        0.0015    0.0044   -0.0017    0.0002    0.0022   -0.0010
    96 H11    1s         0.0086    0.0368   -0.0139   -0.0482   -0.0130   -0.0826
    97 H11    *s        -0.0045   -0.0218   -0.0002   -0.0041    0.0033   -0.0532
    98 H11    *px        0.0037   -0.0054    0.0001   -0.0011   -0.0004   -0.0020
    99 H11    *py        0.0046    0.0046    0.0004    0.0013    0.0000    0.0026
   100 H11    *pz        0.0012    0.0060   -0.0000    0.0001    0.0001    0.0018
   101 C12    1s        -0.0000   -0.0005    0.0009    0.0005   -0.0003    0.0010
   102 C12    2s         0.0708   -0.0633   -0.0538   -0.0108    0.0437   -0.0149
   103 C12    *s         0.0203   -0.0118   -0.0329    0.0041    0.0119   -0.0281
   104 C12    2px        0.3203   -0.3121   -0.0764   -0.0227    0.0894   -0.0296
   105 C12    *px       -0.0410    0.0356   -0.0008   -0.0138    0.0015   -0.0030
   106 C12    2py        0.2340    0.1251    0.0056   -0.0032   -0.0242   -0.0043
   107 C12    *py       -0.0217   -0.0116    0.0022    0.0087   -0.0049   -0.0153
   108 C12    2pz       -0.0164    0.1893   -0.0246   -0.0008    0.0013   -0.0029
   109 C12    *pz        0.0049   -0.0126    0.0115    0.0093   -0.0162   -0.0103
   110 C12    *d2-      -0.0111   -0.0137    0.0017   -0.0001    0.0003    0.0009
   111 C12    *d1-      -0.0008    0.0084   -0.0020   -0.0004    0.0012   -0.0009
   112 C12    *d0        0.0009    0.0124    0.0030    0.0016   -0.0014   -0.0004
   113 C12    *d1+      -0.0020   -0.0115   -0.0011   -0.0003   -0.0008   -0.0035
   114 C12    *d2+       0.0198   -0.0069   -0.0027   -0.0012    0.0018   -0.0002
   115 H13    1s        -0.3300   -0.0753   -0.0003   -0.0007    0.0163   -0.0035
   116 H13    *s         0.0630    0.0145    0.0215   -0.0018   -0.0243   -0.0062
   117 H13    *px       -0.0003   -0.0076    0.0007    0.0002   -0.0005   -0.0010
   118 H13    *py       -0.0104    0.0002   -0.0005   -0.0004    0.0007   -0.0003
   119 H13    *pz        0.0002    0.0040    0.0003    0.0000   -0.0006    0.0003
   120 H14    1s         0.0379   -0.0202    0.0353   -0.0000   -0.0428   -0.0046
   121 H14    *s        -0.0137    0.0098   -0.0018   -0.0044   -0.0075   -0.0045
   122 H14    *px        0.0067   -0.0064   -0.0022   -0.0017    0.0018   -0.0015
   123 H14    *py        0.0039    0.0032   -0.0007   -0.0001    0.0007   -0.0001
   124 H14    *pz        0.0012    0.0030    0.0008   -0.0009   -0.0017    0.0006
   125 H15    1s         0.0082    0.3475   -0.0084    0.0076   -0.0066    0.0152
   126 H15    *s        -0.0057   -0.0726    0.0018   -0.0152    0.0215    0.0369
   127 H15    *px        0.0063    0.0024   -0.0002    0.0010    0.0036    0.0001
   128 H15    *py        0.0053   -0.0041    0.0012    0.0001   -0.0003   -0.0007
   129 H15    *pz        0.0001   -0.0098    0.0017    0.0003    0.0022   -0.0011
   130 H16    1s        -0.0386   -0.0125   -0.0328    0.0074    0.0500   -0.0041
   131 H16    *s         0.0164    0.0056   -0.0002    0.0029    0.0058   -0.0122
   132 H16    *px        0.0044   -0.0028   -0.0008    0.0008    0.0017    0.0002
   133 H16    *py        0.0075    0.0041   -0.0015    0.0017    0.0017    0.0015
   134 H16    *pz        0.0002    0.0024   -0.0014   -0.0004    0.0017    0.0001
--
 
      Von Neumann Entropy (Root   1) =  0.23476
 

      Mulliken population analysis for root number:  1
      -----------------------------------------------
 
 
++    Molecular charges:
      ------------------
 
      Mulliken charges per centre and basis function type
      ---------------------------------------------------
 
                C1      C2      H3      H4      O5      O6      H7      C8      H9      H10     H11     C12   
      1s       2.0043  2.0040  1.2622  1.2672  2.0019  2.0011  1.0610  2.0041  1.2655  1.2683  1.2719  2.0040
      2s       1.3851  1.4479  0.0000  0.0000  1.8336  1.8673  0.0000  1.4499  0.0000  0.0000  0.0000  1.4493
      2px      1.0748  1.1627  0.0000  0.0000  1.6845  1.4947  0.0000  1.1574  0.0000  0.0000  0.0000  1.0942
      2pz      0.8885  1.1735  0.0000  0.0000  1.1081  1.2584  0.0000  1.1186  0.0000  0.0000  0.0000  1.1774
      2py      1.0409  1.1102  0.0000  0.0000  1.5826  1.6847  0.0000  1.1507  0.0000  0.0000  0.0000  1.1754
      *s      -0.1832 -0.4489 -0.3275 -0.3289  0.0408 -0.0748 -0.3208 -0.4566 -0.3328 -0.3298 -0.3208 -0.4568
      *px     -0.0682 -0.1806  0.0074  0.0210  0.0546 -0.0684  0.0369 -0.1799  0.0062  0.0210  0.0066 -0.1825
      *pz     -0.0808 -0.1736  0.0153  0.0054 -0.0714 -0.0343  0.0164 -0.1895  0.0048  0.0048  0.0168 -0.1892
      *py     -0.0833 -0.1791  0.0085  0.0043  0.0541  0.0225  0.0237 -0.1784  0.0199  0.0050  0.0072 -0.1769
      *d2+     0.0399  0.0180  0.0000  0.0000  0.0013  0.0024  0.0000  0.0172  0.0000  0.0000  0.0000  0.0172
      *d1+     0.0316  0.0053  0.0000  0.0000  0.0046  0.0049  0.0000  0.0084  0.0000  0.0000  0.0000  0.0093
      *d0      0.0308  0.0118  0.0000  0.0000  0.0036  0.0028  0.0000  0.0134  0.0000  0.0000  0.0000  0.0120
      *d1-     0.0382  0.0131  0.0000  0.0000  0.0064  0.0022  0.0000  0.0122  0.0000  0.0000  0.0000  0.0090
      *d2-     0.0257  0.0090  0.0000  0.0000  0.0022  0.0031  0.0000  0.0059  0.0000  0.0000  0.0000  0.0095
      Total    6.1444  5.9732  0.9660  0.9690  8.3067  8.1668  0.8173  5.9334  0.9636  0.9693  0.9816  5.9519
 
[...]
   111 C12    *d1-      -0.0004    0.0096   -0.0008   -0.0003    0.0023   -0.0008
   112 C12    *d0       -0.0001    0.0106    0.0019    0.0019   -0.0029   -0.0002
   113 C12    *d1+      -0.0006   -0.0113   -0.0014    0.0002   -0.0012   -0.0035
   114 C12    *d2+       0.0211   -0.0044   -0.0025   -0.0011    0.0016   -0.0005
   115 H13    1s        -0.3259   -0.0978   -0.0025   -0.0036    0.0162   -0.0041
   116 H13    *s         0.0604    0.0177    0.0207   -0.0006   -0.0288   -0.0058
   117 H13    *px        0.0007   -0.0069    0.0008   -0.0001   -0.0005   -0.0010
   118 H13    *py       -0.0105   -0.0004   -0.0008   -0.0004    0.0002   -0.0005
   119 H13    *pz        0.0005    0.0043    0.0007    0.0001   -0.0003    0.0004
   120 H14    1s         0.0454   -0.0393    0.0315    0.0048   -0.0520   -0.0011
   121 H14    *s        -0.0165    0.0127    0.0005   -0.0021   -0.0053   -0.0031
   122 H14    *px        0.0073   -0.0057   -0.0021   -0.0016    0.0019   -0.0014
   123 H14    *py        0.0038    0.0037   -0.0008   -0.0002    0.0006   -0.0002
   124 H14    *pz        0.0007    0.0022    0.0015   -0.0007   -0.0014    0.0007
   125 H15    1s        -0.0290    0.3395    0.0092    0.0074    0.0143    0.0150
   126 H15    *s         0.0048   -0.0712   -0.0153   -0.0128   -0.0077    0.0254
   127 H15    *px        0.0058    0.0032   -0.0017    0.0006    0.0020   -0.0001
   128 H15    *py        0.0059   -0.0042    0.0010   -0.0000   -0.0003   -0.0006
   129 H15    *pz        0.0006   -0.0090   -0.0008    0.0001   -0.0002   -0.0009
   130 H16    1s        -0.0469   -0.0350   -0.0306    0.0061    0.0578   -0.0010
   131 H16    *s         0.0177    0.0112   -0.0012   -0.0003    0.0059   -0.0027
   132 H16    *px        0.0048   -0.0027   -0.0011    0.0006    0.0013    0.0005
   133 H16    *py        0.0070    0.0055   -0.0018    0.0015    0.0019    0.0013
   134 H16    *pz       -0.0009    0.0019   -0.0017   -0.0007    0.0013    0.0006
--
 
      Von Neumann Entropy (Root   1) =  0.32191
 

      Mulliken population analysis for root number:  1
      -----------------------------------------------
 
 
++    Molecular charges:
      ------------------
 
      Mulliken charges per centre and basis function type
      ---------------------------------------------------
 
                C1      C2      H3      H4      O5      O6      H7      C8      H9      H10     H11     C12   
      1s       2.0043  2.0039  1.2576  1.2664  2.0018  2.0011  1.0751  2.0040  1.2654  1.2661  1.2698  2.0039
      2s       1.3858  1.4509  0.0000  0.0000  1.8414  1.8707  0.0000  1.4506  0.0000  0.0000  0.0000  1.4507
      2px      1.0667  1.1626  0.0000  0.0000  1.6639  1.5898  0.0000  1.1563  0.0000  0.0000  0.0000  1.0952
      2pz      0.8893  1.1743  0.0000  0.0000  1.1272  1.1518  0.0000  1.1192  0.0000  0.0000  0.0000  1.1750
      2py      1.0538  1.1056  0.0000  0.0000  1.5620  1.6767  0.0000  1.1465  0.0000  0.0000  0.0000  1.1722
      *s      -0.1895 -0.4522 -0.3320 -0.3270  0.0406 -0.0710 -0.3266 -0.4526 -0.3295 -0.3285 -0.3214 -0.4535
      *px     -0.0736 -0.1778  0.0073  0.0209  0.0538 -0.0299  0.0334 -0.1769  0.0061  0.0210  0.0067 -0.1807
      *pz     -0.0896 -0.1835  0.0153  0.0055 -0.0471 -0.0747  0.0239 -0.1865  0.0048  0.0048  0.0170 -0.1864
      *py     -0.0796 -0.1788  0.0087  0.0042  0.0484  0.0336  0.0220 -0.1771  0.0198  0.0050  0.0068 -0.1757
      *d2+     0.0404  0.0180  0.0000  0.0000  0.0012  0.0015  0.0000  0.0175  0.0000  0.0000  0.0000  0.0173
      *d1+     0.0328  0.0053  0.0000  0.0000  0.0042  0.0053  0.0000  0.0084  0.0000  0.0000  0.0000  0.0098
      *d0      0.0313  0.0122  0.0000  0.0000  0.0029  0.0007  0.0000  0.0134  0.0000  0.0000  0.0000  0.0120
      *d1-     0.0380  0.0127  0.0000  0.0000  0.0053  0.0030  0.0000  0.0118  0.0000  0.0000  0.0000  0.0084
      *d2-     0.0255  0.0088  0.0000  0.0000  0.0018  0.0020  0.0000  0.0056  0.0000  0.0000  0.0000  0.0094
      Total    6.1357  5.9620  0.9569  0.9701  8.3073  8.1604  0.8278  5.9402  0.9666  0.9684  0.9790  5.9577
 
      N-E     -0.1357  0.0380  0.0431  0.0299 -0.3073 -0.1604  0.1722  0.0598  0.0334  0.0316  0.0210  0.0423
 
                H13     H14     H15     H16   
      1s       1.2659  1.2687  1.2564  1.2676
      2s       0.0000  0.0000  0.0000  0.0000
      2px      0.0000  0.0000  0.0000  0.0000
      2pz      0.0000  0.0000  0.0000  0.0000
      2py      0.0000  0.0000  0.0000  0.0000
      *s      -0.3291 -0.3247 -0.3347 -0.3259
      *px      0.0053  0.0070  0.0066  0.0067
      *pz      0.0056  0.0163  0.0155  0.0166
      *py      0.0198  0.0075  0.0092  0.0076
      *d2+     0.0000  0.0000  0.0000  0.0000
      *d1+     0.0000  0.0000  0.0000  0.0000
      *d0      0.0000  0.0000  0.0000  0.0000
      *d1-     0.0000  0.0000  0.0000  0.0000
      *d2-     0.0000  0.0000  0.0000  0.0000
      Total    0.9675  0.9748  0.9530  0.9726
 
      N-E      0.0325  0.0252  0.0470  0.0274
 
      Total electronic charge=   50.000000
 
      Total            charge=   -0.000000
--
 
 

      Expectation values of various properties for root number:  1
      -----------------------------------------------------------
 
 
++    Molecular properties:
      ---------------------
 
      Charge (e):
                      =   -0.0000
      Dipole Moment (Debye):
      Origin of the operator (Ang)=    0.0000    0.0000    0.0000
                   X=  4.2636E-01               Y=  2.7016E-01               Z= -2.5345E-01           Total=  5.6481E-01
      Quadrupole Moment (Debye*Ang):
      Origin of the operator (Ang)=    0.0155    0.0592   -0.0071
                  XX= -3.8264E+01              XY= -9.6440E-02              XZ=  2.5448E+00              YY= -3.9249E+01
                  YZ= -5.2119E-01              ZZ= -3.4148E+01
      In traceless form (Debye*Ang)
                  XX= -1.5653E+00              XY= -1.4466E-01              XZ=  3.8172E+00              YY= -3.0431E+00
                  YZ= -7.8179E-01              ZZ=  4.6084E+00
--
 
      Von Neumann Entropy (Root   2) =  1.08890
 

      Mulliken population analysis for root number:  2
      -----------------------------------------------
 
 
++    Molecular charges:
      ------------------
 
      Mulliken charges per centre and basis function type
      ---------------------------------------------------
 
                C1      C2      H3      H4      O5      O6      H7      C8      H9      H10     H11     C12   
      1s       2.0043  2.0039  1.2579  1.2665  2.0018  2.0011  1.0744  2.0040  1.2652  1.2659  1.2739  2.0039
      2s       1.3860  1.4503  0.0000  0.0000  1.8576  1.8842  0.0000  1.4520  0.0000  0.0000  0.0000  1.4501
      2px      1.0680  1.1627  0.0000  0.0000  1.4564  1.4928  0.0000  1.1567  0.0000  0.0000  0.0000  1.0910
      2pz      0.8934  1.1743  0.0000  0.0000  1.3875  1.4036  0.0000  1.1209  0.0000  0.0000  0.0000  1.1751
      2py      1.0547  1.0999  0.0000  0.0000  1.4665  1.4910  0.0000  1.1475  0.0000  0.0000  0.0000  1.1722
      *s      -0.1901 -0.4522 -0.3321 -0.3276  0.0395 -0.0755 -0.3162 -0.4530 -0.3289 -0.3277 -0.3200 -0.4533
      *px     -0.0757 -0.1776  0.0074  0.0209  0.0473 -0.0328  0.0326 -0.1767  0.0061  0.0210  0.0067 -0.1807
      *pz     -0.0889 -0.1836  0.0152  0.0055 -0.0253 -0.0492  0.0274 -0.1850  0.0048  0.0047  0.0170 -0.1866
      *py     -0.0811 -0.1793  0.0086  0.0043  0.0491  0.0284  0.0196 -0.1770  0.0198  0.0050  0.0069 -0.1756
      *d2+     0.0367  0.0180  0.0000  0.0000  0.0013  0.0016  0.0000  0.0175  0.0000  0.0000  0.0000  0.0173
      *d1+     0.0313  0.0053  0.0000  0.0000  0.0044  0.0055  0.0000  0.0086  0.0000  0.0000  0.0000  0.0098
      *d0      0.0355  0.0121  0.0000  0.0000  0.0040  0.0020  0.0000  0.0140  0.0000  0.0000  0.0000  0.0120
      *d1-     0.0376  0.0128  0.0000  0.0000  0.0057  0.0037  0.0000  0.0119  0.0000  0.0000  0.0000  0.0084
      *d2-     0.0263  0.0088  0.0000  0.0000  0.0017  0.0019  0.0000  0.0056  0.0000  0.0000  0.0000  0.0094
      Total    6.1380  5.9555  0.9570  0.9696  8.2977  8.1581  0.8378  5.9469  0.9670  0.9689  0.9845  5.9531
 
      N-E     -0.1380  0.0445  0.0430  0.0304 -0.2977 -0.1581  0.1622  0.0531  0.0330  0.0311  0.0155  0.0469
 
                H13     H14     H15     H16   
      1s       1.2660  1.2678  1.2566  1.2667
      2s       0.0000  0.0000  0.0000  0.0000
      2px      0.0000  0.0000  0.0000  0.0000
      2pz      0.0000  0.0000  0.0000  0.0000
      2py      0.0000  0.0000  0.0000  0.0000
      *s      -0.3298 -0.3247 -0.3343 -0.3259
      *px      0.0053  0.0070  0.0066  0.0067
      *pz      0.0056  0.0163  0.0155  0.0166
      *py      0.0198  0.0075  0.0092  0.0075
      *d2+     0.0000  0.0000  0.0000  0.0000
      *d1+     0.0000  0.0000  0.0000  0.0000
      *d0      0.0000  0.0000  0.0000  0.0000
      *d1-     0.0000  0.0000  0.0000  0.0000
      *d2-     0.0000  0.0000  0.0000  0.0000
      Total    0.9670  0.9739  0.9535  0.9716
 
      N-E      0.0330  0.0261  0.0465  0.0284
 
      Total electronic charge=   50.000000
 
      Total            charge=   -0.000000
--
 
 

      Expectation values of various properties for root number:  2
      -----------------------------------------------------------
 
 
++    Molecular properties:
      ---------------------
 
      Charge (e):
                      =   -0.0000
      Dipole Moment (Debye):
      Origin of the operator (Ang)=    0.0000    0.0000    0.0000
                   X=  3.9723E-01               Y=  2.6567E-01               Z= -3.0923E-01           Total=  5.6921E-01
      Quadrupole Moment (Debye*Ang):
      Origin of the operator (Ang)=    0.0155    0.0592   -0.0071
                  XX= -3.7797E+01              XY=  5.2411E-01              XZ=  2.8070E+00              YY= -3.8750E+01
                  YZ= -1.1574E+00              ZZ= -3.5437E+01
      In traceless form (Debye*Ang)
                  XX= -7.0311E-01              XY=  7.8617E-01              XZ=  4.2105E+00              YY= -2.1330E+00
                  YZ= -1.7362E+00              ZZ=  2.8361E+00
--
 
      Von Neumann Entropy (Root   3) =  1.16925
 

      Mulliken population analysis for root number:  3
      -----------------------------------------------
 
 
++    Molecular charges:
      ------------------
 
      Mulliken charges per centre and basis function type
      ---------------------------------------------------
 
                C1      C2      H3      H4      O5      O6      H7      C8      H9      H10     H11     C12   
      1s       2.0043  2.0039  1.2583  1.2667  2.0018  2.0011  1.0745  2.0040  1.2652  1.2659  1.2738  2.0039
      2s       1.3860  1.4501  0.0000  0.0000  1.8592  1.8866  0.0000  1.4519  0.0000  0.0000  0.0000  1.4501
      2px      1.0681  1.1626  0.0000  0.0000  1.4734  1.4866  0.0000  1.1566  0.0000  0.0000  0.0000  1.0921
      2pz      0.8938  1.1744  0.0000  0.0000  1.3592  1.4309  0.0000  1.1207  0.0000  0.0000  0.0000  1.1752
      2py      1.0552  1.1027  0.0000  0.0000  1.4924  1.4328  0.0000  1.1474  0.0000  0.0000  0.0000  1.1723
      *s      -0.1902 -0.4522 -0.3329 -0.3282  0.0390 -0.0749 -0.3147 -0.4531 -0.3288 -0.3276 -0.3199 -0.4533
      *px     -0.0734 -0.1778  0.0074  0.0209  0.0473 -0.0319  0.0320 -0.1768  0.0061  0.0210  0.0067 -0.1806
      *pz     -0.0885 -0.1844  0.0152  0.0055 -0.0242 -0.0415  0.0279 -0.1851  0.0048  0.0047  0.0170 -0.1869
      *py     -0.0793 -0.1794  0.0087  0.0042  0.0492  0.0295  0.0197 -0.1769  0.0198  0.0050  0.0069 -0.1757
      *d2+     0.0377  0.0180  0.0000  0.0000  0.0009  0.0012  0.0000  0.0175  0.0000  0.0000  0.0000  0.0173
      *d1+     0.0320  0.0053  0.0000  0.0000  0.0046  0.0054  0.0000  0.0086  0.0000  0.0000  0.0000  0.0098
      *d0      0.0354  0.0121  0.0000  0.0000  0.0042  0.0021  0.0000  0.0140  0.0000  0.0000  0.0000  0.0120
      *d1-     0.0375  0.0128  0.0000  0.0000  0.0059  0.0038  0.0000  0.0119  0.0000  0.0000  0.0000  0.0084
      *d2-     0.0263  0.0088  0.0000  0.0000  0.0017  0.0019  0.0000  0.0056  0.0000  0.0000  0.0000  0.0094
      Total    6.1448  5.9569  0.9567  0.9691  8.3146  8.1336  0.8393  5.9464  0.9671  0.9689  0.9845  5.9538
 
      N-E     -0.1448  0.0431  0.0433  0.0309 -0.3146 -0.1336  0.1607  0.0536  0.0329  0.0311  0.0155  0.0462
 
                H13     H14     H15     H16   
      1s       1.2661  1.2672  1.2567  1.2658
      2s       0.0000  0.0000  0.0000  0.0000
      2px      0.0000  0.0000  0.0000  0.0000
      2pz      0.0000  0.0000  0.0000  0.0000
      2py      0.0000  0.0000  0.0000  0.0000
      *s      -0.3301 -0.3248 -0.3345 -0.3260
      *px      0.0053  0.0070  0.0066  0.0067
      *pz      0.0056  0.0163  0.0155  0.0166
      *py      0.0198  0.0075  0.0092  0.0075
      *d2+     0.0000  0.0000  0.0000  0.0000
      *d1+     0.0000  0.0000  0.0000  0.0000
      *d0      0.0000  0.0000  0.0000  0.0000
      *d1-     0.0000  0.0000  0.0000  0.0000
      *d2-     0.0000  0.0000  0.0000  0.0000
      Total    0.9667  0.9732  0.9535  0.9706
 
      N-E      0.0333  0.0268  0.0465  0.0294
 
      Total electronic charge=   50.000000
 
      Total            charge=   -0.000000
--
 
 

      Expectation values of various properties for root number:  3
      -----------------------------------------------------------
 
 
++    Molecular properties:
      ---------------------
 
      Charge (e):
                      =   -0.0000
      Dipole Moment (Debye):
      Origin of the operator (Ang)=    0.0000    0.0000    0.0000
                   X=  3.4844E-01               Y=  3.7196E-01               Z= -1.4345E-01           Total=  5.2947E-01
      Quadrupole Moment (Debye*Ang):
      Origin of the operator (Ang)=    0.0155    0.0592   -0.0071
                  XX= -3.7798E+01              XY=  6.6101E-01              XZ=  2.9167E+00              YY= -3.8793E+01
                  YZ= -1.2819E+00              ZZ= -3.5273E+01
      In traceless form (Debye*Ang)
                  XX= -7.6570E-01              XY=  9.9151E-01              XZ=  4.3751E+00              YY= -2.2573E+00
                  YZ= -1.9228E+00              ZZ=  3.0230E+00
--
 
      Von Neumann Entropy (Root   4) =  0.82635
 

      Mulliken population analysis for root number:  4
      -----------------------------------------------
 
 
++    Molecular charges:
      ------------------
 
      Mulliken charges per centre and basis function type
      ---------------------------------------------------
 
                C1      C2      H3      H4      O5      O6      H7      C8      H9      H10     H11     C12   
      1s       2.0043  2.0039  1.2583  1.2667  2.0018  2.0011  1.0740  2.0040  1.2650  1.2657  1.2775  2.0039
      2s       1.3861  1.4496  0.0000  0.0000  1.8719  1.8971  0.0000  1.4532  0.0000  0.0000  0.0000  1.4495
      2px      1.0692  1.1627  0.0000  0.0000  1.2805  1.3882  0.0000  1.1570  0.0000  0.0000  0.0000  1.0876
      2pz      0.8970  1.1744  0.0000  0.0000  1.6194  1.6864  0.0000  1.1225  0.0000  0.0000  0.0000  1.1752
      2py      1.0556  1.0958  0.0000  0.0000  1.3971  1.2633  0.0000  1.1483  0.0000  0.0000  0.0000  1.1722
      *s      -0.1906 -0.4522 -0.3328 -0.3285  0.0377 -0.0792 -0.3065 -0.4534 -0.3284 -0.3270 -0.3188 -0.4531
      *px     -0.0767 -0.1774  0.0074  0.0209  0.0410 -0.0360  0.0315 -0.1766  0.0061  0.0210  0.0067 -0.1807
      *pz     -0.0887 -0.1840  0.0152  0.0055 -0.0087 -0.0236  0.0310 -0.1837  0.0048  0.0047  0.0170 -0.1869
      *py     -0.0817 -0.1798  0.0086  0.0043  0.0493  0.0216  0.0170 -0.1769  0.0198  0.0050  0.0069 -0.1755
      *d2+     0.0337  0.0180  0.0000  0.0000  0.0012  0.0015  0.0000  0.0174  0.0000  0.0000  0.0000  0.0173
      *d1+     0.0303  0.0053  0.0000  0.0000  0.0048  0.0056  0.0000  0.0087  0.0000  0.0000  0.0000  0.0099
      *d0      0.0393  0.0121  0.0000  0.0000  0.0051  0.0031  0.0000  0.0145  0.0000  0.0000  0.0000  0.0120
      *d1-     0.0372  0.0129  0.0000  0.0000  0.0063  0.0043  0.0000  0.0120  0.0000  0.0000  0.0000  0.0084
      *d2-     0.0270  0.0088  0.0000  0.0000  0.0017  0.0018  0.0000  0.0056  0.0000  0.0000  0.0000  0.0094
      Total    6.1419  5.9500  0.9567  0.9689  8.3090  8.1352  0.8469  5.9528  0.9673  0.9694  0.9893  5.9492
 
      N-E     -0.1419  0.0500  0.0433  0.0311 -0.3090 -0.1352  0.1531  0.0472  0.0327  0.0306  0.0107  0.0508
 
                H13     H14     H15     H16   
      1s       1.2661  1.2667  1.2568  1.2655
      2s       0.0000  0.0000  0.0000  0.0000
      2px      0.0000  0.0000  0.0000  0.0000
      2pz      0.0000  0.0000  0.0000  0.0000
      2py      0.0000  0.0000  0.0000  0.0000
      *s      -0.3305 -0.3248 -0.3340 -0.3259
      *px      0.0053  0.0069  0.0065  0.0067
      *pz      0.0056  0.0163  0.0155  0.0166
      *py      0.0198  0.0075  0.0092  0.0075
      *d2+     0.0000  0.0000  0.0000  0.0000
      *d1+     0.0000  0.0000  0.0000  0.0000
      *d0      0.0000  0.0000  0.0000  0.0000
      *d1-     0.0000  0.0000  0.0000  0.0000
      *d2-     0.0000  0.0000  0.0000  0.0000
      Total    0.9663  0.9727  0.9540  0.9703
 
      N-E      0.0337  0.0273  0.0460  0.0297
 
      Total electronic charge=   50.000000
 
      Total            charge=   -0.000000
--
 
 

      Expectation values of various properties for root number:  4
      -----------------------------------------------------------
 
 
++    Molecular properties:
      ---------------------
 
      Charge (e):
                      =   -0.0000
      Dipole Moment (Debye):
      Origin of the operator (Ang)=    0.0000    0.0000    0.0000
                   X=  3.1133E-01               Y=  3.5615E-01               Z= -2.1031E-01           Total=  5.1768E-01
      Quadrupole Moment (Debye*Ang):
      Origin of the operator (Ang)=    0.0155    0.0592   -0.0071
                  XX= -3.7377E+01              XY=  1.2334E+00              XZ=  3.0732E+00              YY= -3.8298E+01
                  YZ= -1.7881E+00              ZZ= -3.6330E+01
      In traceless form (Debye*Ang)
                  XX= -6.2625E-02              XY=  1.8501E+00              XZ=  4.6097E+00              YY= -1.4442E+00
                  YZ= -2.6821E+00              ZZ=  1.5068E+00
--
 
 
      Input file to MOLDEN was generated!
 
 
      Input file to MOLDEN was generated!
 
 
      Input file to MOLDEN was generated!
 
 
      Input file to MOLDEN was generated!
 
 
      Input file to MOLDEN was generated!
 
      Average orbitals are written to the RASORB file
      Natural orbitals for root   1 are written to the RASORB.1 file
      Natural orbitals for root   2 are written to the RASORB.2 file
      Natural orbitals for root   3 are written to the RASORB.3 file
      Natural orbitals for root   4 are written to the RASORB.4 file
      Spin density orbitals for root   1 are written to the SPDORB.1 file
      Spin density orbitals for root   2 are written to the SPDORB.2 file
      Spin density orbitals for root   3 are written to the SPDORB.3 file
      Spin density orbitals for root   4 are written to the SPDORB.4 file
 
--- Stop Module: last_energy at Mon Jul  6 17:31:35 2026 /rc=_RC_ALL_IS_WELL_ ---
*** files: tbhp_s0_sa4_casscf_opt.rasscf.molden tbhp_s0_sa4_casscf_opt.rasscf.molden.1 tbhp_s0_sa4_casscf_opt.rasscf.molden.2 tbhp_s0_sa4_casscf_opt.rasscf.molden.3
           tbhp_s0_sa4_casscf_opt.rasscf.molden.4 tbhp_s0_sa4_casscf_opt.RasOrb tbhp_s0_sa4_casscf_opt.RasOrb.1 tbhp_s0_sa4_casscf_opt.RasOrb.2 tbhp_s0_sa4_casscf_opt.RasOrb.3
           tbhp_s0_sa4_casscf_opt.RasOrb.4 tbhp_s0_sa4_casscf_opt.SpdOrb.1 tbhp_s0_sa4_casscf_opt.SpdOrb.2 tbhp_s0_sa4_casscf_opt.SpdOrb.3 tbhp_s0_sa4_casscf_opt.SpdOrb.4 xmldump
    saved to directory /projects/academic/cyberwksp21/Students/hclifford/openmolcas/geom_opt/tbhp
--- Module last_energy spent 54 seconds ---

>>> END DO

.##################.
.# Happy landing! #.
.##################.

    Timing: Wall=1814.79 User=1341.11 System=343.74
