   This run of MOLCAS is using the pymolcas driver

                             OPE
                             OPE          NMOL  CASOP  ENMOLC A   SO
                 OPE        NMOLC        AS  OP EN  MO LC     AS  OP
                OPENM       OL CA        SO  PE NM  OL CA     SOP EN
                OP EN      MO   LC       AS  OP ENMOL  CASO   PENMOL
                OP  EN     MO   LC       AS  OP EN     MO     LC ASO
               OP   E  NMOL  C  AS       OP  EN MO     LC     AS  OP
               OP  E   NMO   LC AS        OPEN  MO     LCASOP EN   M
               O  PEN   MO  LCA  SO
            OPE   NMO   L   CAS    OP
        OPENMOL  CASOP     ENMOL   CASOPE
     OPENMOLCA   SOPENMOLCASOPEN   MOLCASOPE
    OPENMOLCAS   OP           EN   MOL    CAS
    OPENMOLCAS       OP  ENM        O     LCA
    OPENMOLCAS    OPEN  MOLCASO     P  E  NMO
    OPENMOLCAS     OP               E  N  MOL
    OPENMOLCA   SO           PENM   O  L  CAS    OPEN    MO    LCAS
    OPENMOLCA   SOP           ENM   O  L  CAS   OP  EN  MOLC  AS   O
    OPENMOLCA   SOPE           NM      O  LCA   S      OP  EN MO
    OPENMOLC                AS         O  PEN   M      OL  CA  SOPE
    OPENMO        LCASOPE  NMOL        C  ASO   P      ENMOLC     AS
    OPE     NMO      LCA  SO     P     E   NM   OL  CA SO  PE N   MO
          OPENMOLCA            SOPE   NMO        LCAS  O    P  ENMO
     OPENMOLCASOPENMOLCASOPENMOLCASOPENMOLCA
        OPENMOLCASOPENMOLCASOPENMOLCASOPE
            OPENMOLCASOPENMOLCASOPENM
               OPENMOLCASOPENMOLCA        version: v23.10 ?
                   OPENMOLCASO
                       OPE                tag:

 OpenMolcas is free software; you can redistribute it and/or modify it
 under the terms of the GNU Lesser General Public License version 2.1.
 OpenMolcas is distributed in the hope that it will be useful, but it
 is provided "as is" and without any express or implied warranties.
 For more details see the full text of the license in the file
 LICENSE or in <http://www.gnu.org/licenses/>.

                 Copyright (C) The OpenMolcas Authors
           For the author list and the recommended citation,
                   consult the file CONTRIBUTORS.md

           *************************************************
           * pymolcas version py2.25                       *
           *   build 2b27fa14244bdc32cb1957e6230cd793      *
           *   (after the EMIL interpreter by V. Veryazov) *
           *************************************************

configuration info
------------------
Host name: cpn-h22-29.core.ccr.buffalo.edu (Linux)
C Compiler ID: Intel
C flags: -O2 -xCore-AVX512 -ftz -fp-speculation=safe -fp-model source -std=gnu99 -gcc-sys -qopenmp
Fortran Compiler ID: Intel
Fortran flags: -O2 -xCore-AVX512 -ftz -fp-speculation=safe -fp-model source  -fpp -i8 -heap-arrays -qopenmp
Definitions: _MOLCAS_;_I8_;_LINUX_;_MOLCAS_MPP_;_SCALAPACK_;_GA_
Parallel: ON (GA=ON)


   -----------------------------------------------------------------------------------------------------------------------------------------------------
  |
  |           Project: tbhp_s0_sa4_casscf_hessian
  |    Submitted from: /vscratch/grp-cyberwksp21/hclifford/Tutorials_PySpawn/TBHP/hessian_generate
  |      Scratch area: /vscratch/grp-cyberwksp21/hclifford/Tutorials_PySpawn/TBHP/hessian_generate/molcas_scratch_25204622/tbhp_s0_sa4_casscf_hessian
  |   Save outputs to: /vscratch/grp-cyberwksp21/hclifford/Tutorials_PySpawn/TBHP/hessian_generate
  |            Molcas: /cvmfs/soft.ccr.buffalo.edu/versions/2023.01/easybuild/software/avx512/MPI/intel/2022.0.1/impi/2021.5.0/openmolcas/23.10
  |
  | Scratch area is empty
  |
  |    MOLCAS_DRIVER = /cvmfs/soft.ccr.buffalo.edu/versions/2023.01/easybuild/software/avx512/MPI/intel/2022.0.1/impi/2021.5.0/openmolcas/23.10/pymolcas
  |    MOLCAS_MOLDEN = ON
  |    MOLCAS_NPROCS = 1
  |     MOLCAS_PRINT = NORMAL
  |    MOLCAS_SOURCE = /cvmfs/soft.ccr.buffalo.edu/versions/2023.01/easybuild/software/avx512/MPI/intel/2022.0.1/impi/2021.5.0/openmolcas/23.10
  | MOLCAS_STRUCTURE = 0
  |
   -----------------------------------------------------------------------------------------------------------------------------------------------------

++ ---------   Input file   ---------

&GATEWAY
  Title = TBHP S0 Hessian SA4-CASSCF(6e,4o)
  Coord = tbhp_s0_sa4_casscf_opt.Opt.xyz
  Basis = cc-pVDZ
  Group = NoSymm

&SEWARD

&RASSCF
  Title = TBHP SA4-CASSCF(6e,4o), S0 Hessian
  Spin = 1
  NActEl = 6 0 0
  Inactive = 22
  Ras2 = 4
  CiRoot = 4 4 1
  RlxRoot = 1
  LumOrb
  LevShift = 1.0

&ALASKA

&MCKINLEY
  Perturbation
  Hessian

-- ----------------------------------

--- Start Module: gateway at Thu Jul  9 12:58:57 2026 ---
 
()()()()()()()()()()()()()()()()()()()()()()()()()()()()()()()()()()()()()()()()()()()()()()()()()()

                                              &GATEWAY

                       only a single process is used, running in SERIAL mode
                        available to each process: 28 GB of memory, 1 thread
                                            pid: 1138627
()()()()()()()()()()()()()()()()()()()()()()()()()()()()()()()()()()()()()()()()()()()()()()()()()()
 
 
 Title:
                               TBHP S0 Hessian SA4-CASSCF(6e,4o)                        
 
 
++    Symmetry information:
      ---------------------
 
                    Character Table for C1 
 
                             E  
                    a        1  x, y, xy, Rz, z, xz, Ry, yz, Rx, I
--
 
 
++    Basis set information:
      ----------------------
 
 
      Basis set label: C.CC-PVDZ.........
 
      Electronic valence basis set:
      ------------------
      Associated Effective Charge   6.000000 au
      Associated Actual Charge      6.000000 au
      Nuclear Model: Point charge
 
      Shell  nPrim  nBasis  Cartesian Spherical Contaminant
         s       9       3        X                  
         p       4       2        X                  
         d       1       1                 X         
 
 
      Basis set label: H.CC-PVDZ.........
 
      Electronic valence basis set:
      ------------------
      Associated Effective Charge   1.000000 au
      Associated Actual Charge      1.000000 au
      Nuclear Model: Point charge
 
      Shell  nPrim  nBasis  Cartesian Spherical Contaminant
         s       4       2        X                  
         p       1       1        X                  
 
 
      Basis set label: O.CC-PVDZ.........
 
      Electronic valence basis set:
      ------------------
      Associated Effective Charge   8.000000 au
      Associated Actual Charge      8.000000 au
      Nuclear Model: Point charge
 
      Shell  nPrim  nBasis  Cartesian Spherical Contaminant
         s       9       3        X                  
         p       4       2        X                  
         d       1       1                 X         
 
 
      Basis set label: H.CC-PVDZ.........
 
      Electronic valence basis set:
      ------------------
      Associated Effective Charge   1.000000 au
      Associated Actual Charge      1.000000 au
      Nuclear Model: Point charge
 
      Shell  nPrim  nBasis  Cartesian Spherical Contaminant
         s       4       2        X                  
         p       1       1        X                  
 
 
      Basis set label: C.CC-PVDZ.........
 
      Electronic valence basis set:
      ------------------
      Associated Effective Charge   6.000000 au
      Associated Actual Charge      6.000000 au
      Nuclear Model: Point charge
 
      Shell  nPrim  nBasis  Cartesian Spherical Contaminant
         s       9       3        X                  
         p       4       2        X                  
         d       1       1                 X         
 
 
      Basis set label: H.CC-PVDZ.........
 
      Electronic valence basis set:
      ------------------
      Associated Effective Charge   1.000000 au
      Associated Actual Charge      1.000000 au
      Nuclear Model: Point charge
 
      Shell  nPrim  nBasis  Cartesian Spherical Contaminant
         s       4       2        X                  
         p       1       1        X                  
 
 
      Basis set label: C.CC-PVDZ.........
 
      Electronic valence basis set:
      ------------------
      Associated Effective Charge   6.000000 au
      Associated Actual Charge      6.000000 au
      Nuclear Model: Point charge
 
      Shell  nPrim  nBasis  Cartesian Spherical Contaminant
         s       9       3        X                  
         p       4       2        X                  
         d       1       1                 X         
 
 
      Basis set label: H.CC-PVDZ.........
 
      Electronic valence basis set:
      ------------------
      Associated Effective Charge   1.000000 au
      Associated Actual Charge      1.000000 au
      Nuclear Model: Point charge
 
      Shell  nPrim  nBasis  Cartesian Spherical Contaminant
         s       4       2        X                  
         p       1       1        X                  
--
 
 
++    Molecular structure info:
      -------------------------
 
                    ************************************************ 
                    **** Cartesian Coordinates / Bohr, Angstrom **** 
                    ************************************************ 
 
     Center  Label                x              y              z                     x              y              z
        1      C1              -0.021542       0.141236      -0.863799             -0.011400       0.074739      -0.457103
        2      C2               0.831168       2.894138      -0.976131              0.439835       1.531512      -0.516547
        3      H3               0.063091       3.973818       0.597379              0.033386       2.102854       0.316120
        4      H4               2.889618       3.006368      -0.897928              1.529120       1.590901      -0.475163
        5      O5               1.048443      -1.087412       1.282909              0.554812      -0.575434       0.678886
        6      O6              -0.004275       0.250378       3.650808             -0.002262       0.132494       1.931925
        7      H7               1.263745      -0.351457       4.767996              0.668745      -0.185983       2.523115
        8      C8               1.105388      -1.375518      -3.048072              0.584946      -0.727893      -1.612970
        9      H9               0.556259      -3.358152      -2.914267              0.294360      -1.777058      -1.542164
       10      H10              3.164481      -1.268188      -3.022044              1.674571      -0.671096      -1.599197
       11      H11              0.434286      -0.629140      -4.848329              0.229814      -0.332927      -2.565625
       12      C12             -2.895285      -0.095819      -0.822797             -1.532119      -0.050705      -0.435405
       13      H13             -3.445010      -2.076354      -0.655641             -1.823021      -1.098759      -0.346950
       14      H14             -3.697104       0.662660      -2.566952             -1.956423       0.350665      -1.358373
       15      H15             -3.702320       0.934206       0.764700             -1.959183       0.494360       0.404662
       16      H16              0.198038       3.766686      -2.736247              0.104797       1.993244      -1.447959
 
                    ************************************************* 
                    **** InterNuclear Distances / Bohr, Angstrom **** 
                    ************************************************* 
 
     Atom centers         Bohr        Angstrom
    7 H7        6 O6      1.793931        0.949307
    3 H3        2 C2      2.057082        1.088561
   15 H15      12 C12     2.057280        1.088666
   11 H11       8 C8      2.061161        1.090720
    9 H9        8 C8      2.061622        1.090963
   10 H10       8 C8      2.062053        1.091191
   13 H13      12 C12     2.062197        1.091268
    4 H4        2 C2      2.062990        1.091687
   14 H14      12 C12     2.064025        1.092235
   16 H16       2 C2    
    5 O5        1 C1      2.694958        1.426110
   12 C12       1 C1      2.883795        1.526039
    2 C2        1 C1      2.884130        1.526216
    8 C8        1 C1      2.888177        1.528357
    6 O6        5 O5      2.916307        1.543243
   15 H15      13 H13     3.338719        1.766774
    4 H4        3 H3      3.340833        1.767893
   15 H15      14 H14     3.342704        1.768883
   16 H16       3 H3      3.342780        1.768923
   10 H10       9 H9      3.344008        1.769573
   11 H11      10 H10     3.346292        1.770781
   16 H16       4 H4      3.346954        1.771132
   11 H11       9 H9      3.347086        1.771202
   14 H14      13 H13     3.349457        1.772456
    7 H7        5 O5      3.568447        1.888341
   11 H11       1 C1      4.083839        2.161075
   13 H13       1 C1      4.084258        2.161296
   14 H14       1 C1      4.084405        2.161374
    4 H4        1 C1      4.084728        2.161545
   16 H16       1 C1      4.086339        2.162397
    9 H9        1 C1      4.096827        2.167948
   10 H10       1 C1      4.098200        2.168674
   15 H15       1 C1      4.102308        2.170848
    3 H3        1 C1      4.102547        2.170974
    8 C8        5 O5      4.340927        2.297119
    6 O6        1 C1      4.515959        2.389743
   12 C12       5 O5      4.579328        2.423276
    5 O5        2 C2      4.582926        2.425180
   15 H15       6 O6      4.740546        2.508589
   12 C12       8 C8      4.753406        2.515394
    8 C8        2 C2      4.753746        2.515574
   13 H13       9 H9      4.770174        2.524267
   12 C12       2 C2      4.780148        2.529545
   10 H10       4 H4      4.781134        2.530067
    9 H9        5 O5      4.797374        2.538661
   10 H10       5 O5      4.800304        2.540212
    6 O6        3 H3      4.815804        2.548414
   15 H15       3 H3      4.842061        2.562308
   16 H16      11 H11     4.882622        2.583772
   14 H14      11 H11     4.893037        2.589284
   16 H16      14 H14     4.983550        2.637181
    5 O5        4 H4      4.990492        2.640855
   13 H13       5 O5      4.992705        2.642026
   13 H13       8 C8      5.188547        2.745661
   15 H15       5 O5      5.188952        2.745875
   12 C12       9 H9      5.189434        2.746130
   10 H10       2 C2      5.191827        2.747397
    8 C8        4 H4      5.196876        2.750068
    5 O5        3 H3      5.201626        2.752582
   12 C12       3 H3      5.227890        2.766480
   16 H16       8 C8      5.230945        2.768097
   15 H15       2 C2      5.236825        2.771209
   14 H14       8 C8      5.239235        2.772484
   11 H11       2 C2      5.250231        2.778302
   12 C12      11 H11     5.251227        2.778830
   14 H14       2 C2      5.292963        2.800915
   16 H16      12 C12     5.305553        2.807577
   12 C12       6 O6      5.337690        2.824584
    6 O6        2 C2      5.394071        2.854420
--
 
 
            Nuclear Potential Energy            269.05291782 au
 
--- Stop Module: gateway at Thu Jul  9 12:58:57 2026 /rc=_RC_ALL_IS_WELL_ ---
*** files: xmldump
    saved to directory /vscratch/grp-cyberwksp21/hclifford/Tutorials_PySpawn/TBHP/hessian_generate

--- Start Module: seward at Thu Jul  9 12:58:57 2026 ---
 
()()()()()()()()()()()()()()()()()()()()()()()()()()()()()()()()()()()()()()()()()()()()()()()()()()

                                              &SEWARD

                       only a single process is used, running in SERIAL mode
                        available to each process: 28 GB of memory, 1 thread
                                            pid: 1138639
()()()()()()()()()()()()()()()()()()()()()()()()()()()()()()()()()()()()()()()()()()()()()()()()()()
 
               SEWARD will generate:
                  Multipole Moment integrals up to order  2
                  Kinetic Energy integrals
                  Nuclear Attraction integrals (point charge)
                  One-Electron Hamiltonian integrals
                  Velocity integrals
                  Orbital angular momentum around ( 0.0294  0.1119 -0.0135 )
                  Velocity quadrupole around ( 0.0294  0.1119 -0.0135 )
                  Two-Electron Repulsion integrals
 
 Title:
                               TBHP S0 Hessian SA4-CASSCF(6e,4o)                        
 
 
                   Integrals are discarded if absolute value <: 0.10E-13
                   Integral cutoff threshold is set to       <: 0.10E-15
 
            Nuclear Potential Energy            269.05291782 au
 
 
      Basis set specifications :
      Symmetry species         a  
      Basis functions          134
 
 
      Input file to MOLDEN was generated!
 
--- Stop Module: seward at Thu Jul  9 12:59:11 2026 /rc=_RC_ALL_IS_WELL_ ---
*** files: tbhp_s0_sa4_casscf_hessian.GssOrb tbhp_s0_sa4_casscf_hessian.guessorb.h5 tbhp_s0_sa4_casscf_hessian.guessorb.molden xmldump
    saved to directory /vscratch/grp-cyberwksp21/hclifford/Tutorials_PySpawn/TBHP/hessian_generate
--- Module seward spent 13 seconds ---

*** symbolic link created: INPORB -> tbhp_s0_sa4_casscf_hessian.GssOrb
--- Start Module: rasscf at Thu Jul  9 12:59:11 2026 ---
 
()()()()()()()()()()()()()()()()()()()()()()()()()()()()()()()()()()()()()()()()()()()()()()()()()()

                                              &RASSCF

                       only a single process is used, running in SERIAL mode
                        available to each process: 28 GB of memory, 1 thread
                                            pid: 1138660
()()()()()()()()()()()()()()()()()()()()()()()()()()()()()()()()()()()()()()()()()()()()()()()()()()
 
 
      Header of the ONEINT file:
      --------------------------
      
      Integrals generated by Gateway/Seward, Thu Jul  9 12:58:58 2026
 
 
      OrdInt status: non-squared
 
 
      Cartesian coordinates in Angstrom:
      -----------------------------------------------------
      No.  Label        X            Y            Z        
      -----------------------------------------------------
       1   C1        -0.01139969   0.07473874  -0.45710275
       2   C2         0.43983524   1.53151203  -0.51654652
       3   H3         0.03338615   2.10285377   0.31611957
       4   H4         1.52912019   1.59090129  -0.47516326
       5   O5         0.55481218  -0.57543356   0.67888606
       6   O6        -0.00226221   0.13249446   1.93192454
       7   H7         0.66874488  -0.18598325   2.52311476
       8   C8         0.58494633  -0.72789299  -1.61297035
       9   H9         0.29435984  -1.77705775  -1.54216375
      10   H10        1.67457144  -0.67109611  -1.59919702
      11   H11        0.22981418  -0.33292659  -2.56562545
      12   C12       -1.53211881  -0.05070542  -0.43540531
      13   H13       -1.82302072  -1.09875916  -0.34695030
      14   H14       -1.95642321   0.35066475  -1.35837253
      15   H15       -1.95918318   0.49436032   0.40466163
      16   H16        0.10479738   1.99324446  -1.44795932
      -----------------------------------------------------
      Nuclear repulsion energy =  269.05291782
 
++    Wave function specifications:
      -----------------------------
 
      Number of closed shell electrons          44
      Number of electrons in active shells       6
      Max number of holes in RAS1 space          0
      Max nr of electrons in RAS3 space          0
      Number of inactive orbitals               22
      Number of active orbitals                  4
      Number of secondary orbitals             108
      Spin quantum number                      0.0
      State symmetry                             1
--
 
++    Orbital specifications:
      -----------------------
 
      Symmetry species                           1
                                                 a
      Frozen orbitals                            0
      Inactive orbitals                         22
      Active orbitals                            4
      RAS1 orbitals                              0
      RAS2 orbitals                              4
      RAS3 orbitals                              0
      Secondary orbitals                       108
      Deleted orbitals                           0
      Number of basis functions                134
--
 
++    CI expansion specifications:
      ----------------------------
 
      Number of CSFs                            10
      Number of determinants                    10
      Number of root(s) required                 4
      Root chosen for geometry opt.              1
      CI roots used                              1     2     3     4
      weights                                0.250 0.250 0.250 0.250
      highest root included in the CI            4
      max. size of the explicit Hamiltonian     10
--
 
++    Optimization specifications:
      ----------------------------
 
      RASSCF algorithm: Conventional
      Maximum number of macro iterations       200
      Maximum number of SX iterations          100
      Threshold for RASSCF energy            0.100E-07
      Threshold for max MO rotation          0.100E+00
      Threshold for max BLB element          0.100E-03
      Level shift parameter                  0.100E+01
      Make Quasi-Newton update
--
 
      The MO-coefficients are taken from the file:
      INPORB                                                                                                                                                                                                                                                          
      Title:Guess orbitals                                                                 
 
      Total molecular charge    0.00
 
      ************************************************************************************************************************
      *                                                                                                                      *
      *                                            Wave function control section                                             *
      *                                                                                                                      *
      ************************************************************************************************************************
 
 
                                         RASSCF iterations: Energy and convergence statistics
                                         ----------------------------------------------------
 
      Iter CI   SX   CI       RASSCF       Energy    max ROT     max BLB   max BLB  Level Ln srch  Step   QN   Walltime
          iter iter root      energy       change     param      element    value   shift minimum  type update hh:mm:ss
 Nr of preliminary CI iterations:   1
        1   1  100    0  -306.00882368    0.00E+00  -0.10E+00*  22  27 1 -0.26E+00*  0.68   0.00    SX    NO    0:00:03
        2   1   24    0  -306.56717311   -0.56E+00*  0.45E-01   10  39 1  0.91E-01*  0.75   0.00    SX    NO    0:00:01
        3   1   11    0  -306.65703845   -0.90E-01*  0.38E-01   22  27 1 -0.54E-01*  0.77   0.00    SX    NO    0:00:01
        4   1   13    0  -306.68056335   -0.24E-01*  0.32E-01   10  39 1  0.22E-01*  0.77   0.00    SX    NO    0:00:01
        5   1   12    0  -306.68830013   -0.77E-02*  0.39E-01   22  27 1 -0.12E-01*  0.77   2.50    LS   YES    0:00:01
        6   1   12    0  -306.69316489   -0.49E-02*  0.42E-01   22  25 1 -0.66E-02*  0.77   1.45    QN   YES    0:00:01
        7   1   10    0  -306.69574148   -0.26E-02*  0.90E-01   22  27 1  0.71E-02*  0.77   2.50    QN   YES    0:00:01
        8   1   10    0  -306.70020012   -0.45E-02*  0.85E-01   22  27 1  0.13E-01*  0.76   2.50    LS   YES    0:00:01
        9   1   35    0  -306.70402734   -0.38E-02*  0.81E-01   22  27 1  0.20E-01*  0.72   2.50    LS   YES    0:00:01
       10   1   53    0  -306.70788374   -0.39E-02*  0.13E+00*  22  27 1  0.52E-01*  0.71   1.27    QN   YES    0:00:01
       11   1  100    0  -306.71168447   -0.38E-02*  0.53E-01   22  27 1  0.40E-01*  0.70   0.72    QN   YES    0:00:01
       12   1   25    0  -306.72381879   -0.12E-01*  0.18E+00*  22  27 1  0.35E-01*  0.69   2.50    QN   YES    0:00:01
       13   1   15    0  -306.74396570   -0.20E-01*  0.25E+00*  22  27 1  0.23E-01*  0.69   2.50    QN   YES    0:00:01
       14   1   52    0  -306.76504962   -0.21E-01*  0.12E+00*  14 131 1  0.22E-01*  0.71   1.43    QN   YES    0:00:01
       15   1   46    0  -306.77206990   -0.70E-02*  0.49E-01   14 131 1  0.21E-01*  0.72   1.39    QN   YES    0:00:01
       16   1   24    0  -306.77903187   -0.70E-02*  0.55E-01   21  37 1  0.17E-01*  0.73   2.50    LS   YES    0:00:01
       17   1   10    0  -306.78324122   -0.42E-02* -0.29E-01   11  28 1 -0.14E-01*  0.73   1.53    QN   YES    0:00:01
       18   1    9    0  -306.78838935   -0.51E-02* -0.17E-01   22  27 1 -0.81E-02*  0.73   1.66    LS   YES    0:00:01
       19   1   14    0  -306.78933586   -0.95E-03*  0.14E-01   14 131 1 -0.10E-01*  0.73   1.10    QN   YES    0:00:01
       20   1    9    0  -306.79063206   -0.13E-02*  0.16E-01   22  27 1 -0.65E-02*  0.73   2.25    LS   YES    0:00:01
       21   1    9    0  -306.79120609   -0.57E-03* -0.14E-01   22  27 1 -0.41E-02*  0.73   1.10    QN   YES    0:00:01
       22   1    9    0  -306.79148486   -0.28E-03*  0.80E-02   22  27 1 -0.38E-02*  0.73   1.17    QN   YES    0:00:01
       23   1    8    0  -306.79161325   -0.13E-03*  0.37E-02   22  27 1 -0.25E-02*  0.73   1.46    QN   YES    0:00:01
       24   1    8    0  -306.79165077   -0.38E-04*  0.19E-02   22  27 1 -0.11E-02*  0.73   1.35    QN   YES    0:00:01
       25   1    8    0  -306.79166204   -0.11E-04*  0.16E-02   14 131 1 -0.49E-03*  0.73   1.73    QN   YES    0:00:01
       26   1    7    0  -306.79166885   -0.68E-05* -0.11E-02   18  26 1 -0.22E-03*  0.73   1.47    QN   YES    0:00:01
       27   1    7    0  -306.79167172   -0.29E-05*  0.10E-02   22  27 1  0.29E-03*  0.73   1.68    QN   YES    0:00:01
       28   1    7    0  -306.79167343   -0.17E-05*  0.75E-03   22  27 1  0.27E-03*  0.73   1.53    QN   YES    0:00:01
       29   1    7    0  -306.79167416   -0.74E-06* -0.45E-03   22  27 1  0.18E-03*  0.73   1.49    QN   YES    0:00:01
       30   1    6    0  -306.79167443   -0.26E-06* -0.19E-03   22  27 1  0.95E-04   0.73   1.39    QN   YES    0:00:01
       31   1    6    0  -306.79167450   -0.73E-07*  0.10E-03   22  27 1  0.50E-04   0.73   1.45    QN   YES    0:00:01
       32   1    6    0  -306.79167453   -0.25E-07* -0.68E-04   22  27 1  0.26E-04   0.73   1.49    QN   YES    0:00:01
       33   1    5    0  -306.79167454   -0.95E-08  -0.40E-04   26  27 1  0.13E-04   0.73   1.47    QN   YES    0:00:01
      Convergence after 33 iterations
       34   1    5    0  -306.79167454   -0.33E-08  -0.40E-04   26  27 1  0.58E-05   0.73   1.47    QN   YES    0:00:01
 
      ************************************************************************************************************************
                                                      Wave function printout:
                       occupation of active orbitals, and spin coupling of open shells (u,d: Spin up or down)
      ************************************************************************************************************************
 
      Note: transformation to natural orbitals
      has been made, which may change the order of the CSFs.
 
      printout of CI-coefficients larger than  0.05 for root  1
      energy=    -306.974391
      conf/sym  1111     Coeff  Weight
             1  2220  -0.96997 0.94083
             8  2022   0.23851 0.05689
 
      printout of CI-coefficients larger than  0.05 for root  2
      energy=    -306.809684
      conf/sym  1111     Coeff  Weight
             5  2ud2   0.31612 0.09993
             6  u22d   0.94714 0.89707
 
      printout of CI-coefficients larger than  0.05 for root  3
      energy=    -306.727067
      conf/sym  1111     Coeff  Weight
             2  22ud   0.88135 0.77678
             9  ud22   0.47068 0.22154
 
      printout of CI-coefficients larger than  0.05 for root  4
      energy=    -306.655555
      conf/sym  1111     Coeff  Weight
             3  2202   0.50842 0.25849
            10  0222  -0.86020 0.73994
 
      Natural orbitals and occupation numbers for root  1
      sym 1:   1.997015   1.886057   1.999769   0.117159
 
      Natural orbitals and occupation numbers for root  2
      sym 1:   1.100965   1.902761   1.898349   1.097925
 
      Natural orbitals and occupation numbers for root  3
      sym 1:   1.779111   1.780911   1.223417   1.216561
 
      Natural orbitals and occupation numbers for root  4
      sym 1:   0.518958   1.999397   1.482827   1.998818
 
      ************************************************************************************************************************
      *                                                                                                                      *
      *                                                    Final results                                                     *
      *                                                                                                                      *
      ************************************************************************************************************************
 
 
++    Wave function specifications:
      -----------------------------
 
      Number of closed shell electrons          44
      Number of electrons in active shells       6
      Max number of holes in RAS1 space          0
      Max nr of electrons in RAS3 space          0
      Number of inactive orbitals               22
      Number of active orbitals                  4
      Number of secondary orbitals             108
      Spin quantum number                      0.0
      State symmetry                             1
--
 
++    Orbital specifications:
      -----------------------
 
      Symmetry species                           1
                                                 a
      Frozen orbitals                            0
      Inactive orbitals                         22
      Active orbitals                            4
      RAS1 orbitals                              0
      RAS2 orbitals                              4
      RAS3 orbitals                              0
      Secondary orbitals                       108
      Deleted orbitals                           0
      Number of basis functions                134
--
 
++    CI expansion specifications:
      ----------------------------
 
      Number of CSFs                            10
      Number of determinants                    10
      Number of root(s) required                 4
      CI roots used                              1     2     3     4
      weights                                0.250 0.250 0.250 0.250
      highest root included in the CI            4
      Root passed to geometry opt.               1
--
 
++    Final optimization conditions:
      ------------------------------
 
      Average CI energy                            -306.79167454
      RASSCF energy for state  1                   -306.97439121
      Super-CI energy                                -0.00000000
      RASSCF energy change                           -0.00000000
      Max change in MO coefficients              -0.313E-04
      Max non-diagonal density matrix element    -0.398E-04
      Maximum BLB matrix element                  0.579E-05
      (orbital pair  26,  27 in symmetry   1)
      Norm of electronic gradient            0.133E+00
--
 
 
      Final state energy(ies):
      ------------------------
 
::    RASSCF root number  1 Total energy:   -306.97439121
::    RASSCF root number  2 Total energy:   -306.80968431
::    RASSCF root number  3 Total energy:   -306.72706733
::    RASSCF root number  4 Total energy:   -306.65555531
 
++    Molecular orbitals:
      -------------------
 
      Pseudonatural active orbitals and approximate occupation numbers
 
 
 
 
      Molecular orbitals for symmetry species 1: a  
 
 
      Orbital                 1         2         3         4         5         6         7         8         9        10
      Energy           -20.5697  -20.5597  -11.2818  -11.2199  -11.2175  -11.2156   -1.3907   -1.2348   -1.0475   -0.9393
      Occ. No.           2.0000    2.0000    2.0000    2.0000    2.0000    2.0000    2.0000    2.0000    2.0000    2.0000
 
     1 C1     1s        -0.0001   -0.0002   -1.0021    0.0049   -0.0047   -0.0046   -0.0052   -0.0108   -0.0169   -0.0001
     2 C1     2s        -0.0003   -0.0008   -0.0106   -0.0003    0.0004    0.0005    0.2210    0.3066    0.3919    0.0041
     3 C1     *s         0.0003    0.0045    0.0172   -0.0006    0.0005    0.0003   -0.1029   -0.0770    0.0114    0.0006
     4 C1     2px        0.0000    0.0002   -0.0003   -0.0001   -0.0003    0.0001    0.0385    0.0494   -0.0683   -0.1803
     5 C1     *px       -0.0002    0.0012   -0.0004   -0.0006   -0.0007    0.0003   -0.0164   -0.0259    0.0064    0.0068
     6 C1     2py       -0.0001   -0.0002    0.0004   -0.0003    0.0000   -0.0002   -0.0438   -0.0572    0.0804   -0.1770
     7 C1     *py        0.0003   -0.0015    0.0006   -0.0006   -0.0005   -0.0005    0.0156    0.0328   -0.0063    0.0069
     8 C1     2pz       -0.0001    0.0005   -0.0009    0.0000    0.0000   -0.0003    0.0922    0.0731   -0.1349   -0.0123
     9 C1     *pz        0.0011    0.0016    0.0004   -0.0004    0.0004   -0.0004   -0.0527   -0.0206    0.0209    0.0001
    10 C1     *d2-      -0.0001    0.0000    0.0000    0.0001   -0.0000    0.0001   -0.0065   -0.0060    0.0079   -0.0072
    11 C1     *d1-      -0.0001   -0.0000    0.0000   -0.0000   -0.0000   -0.0001   -0.0113   -0.0119    0.0141    0.0023
    12 C1     *d0       -0.0000    0.0002   -0.0001   -0.0001    0.0001   -0.0000    0.0059    0.0070   -0.0126    0.0020
    13 C1     *d1+       0.0001    0.0000   -0.0000   -0.0001   -0.0000    0.0001    0.0096    0.0103   -0.0125   -0.0027
    14 C1     *d2+      -0.0000    0.0000    0.0000   -0.0001   -0.0001    0.0000   -0.0009   -0.0010    0.0010    0.0244
    15 C2     1s         0.0000   -0.0001   -0.0048   -1.0019    0.0034    0.0018   -0.0013   -0.0016   -0.0119    0.0176
    16 C2     2s         0.0000   -0.0002    0.0004   -0.0104   -0.0006   -0.0007    0.0491    0.0917    0.3710   -0.5696
    17 C2     *s        -0.0003    0.0000   -0.0040    0.0123    0.0014    0.0014   -0.0130   -0.0454   -0.1437    0.1747
    18 C2     2px        0.0000    0.0000    0.0001   -0.0001    0.0001   -0.0001   -0.0059   -0.0069   -0.0326   -0.0202
    19 C2     *px        0.0001   -0.0002    0.0004   -0.0003   -0.0009    0.0002    0.0005    0.0049    0.0181    0.0069
    20 C2     2py        0.0000    0.0002    0.0003   -0.0002    0.0000    0.0001   -0.0294   -0.0414   -0.0679    0.0028
    21 C2     *py       -0.0001   -0.0000    0.0014   -0.0009   -0.0004   -0.0007    0.0046    0.0225    0.0355   -0.0172
    22 C2     2pz       -0.0000   -0.0001    0.0000    0.0002    0.0000    0.0001    0.0087    0.0050   -0.0134   -0.0021
    23 C2     *pz        0.0000   -0.0003   -0.0004   -0.0002   -0.0001   -0.0006    0.0017   -0.0048    0.0041    0.0055
    24 C2     *d2-      -0.0000    0.0001    0.0000    0.0001    0.0001   -0.0000    0.0016    0.0016    0.0057    0.0003
    25 C2     *d1-       0.0001    0.0000    0.0000   -0.0000   -0.0000    0.0001   -0.0024   -0.0005    0.0017   -0.0002
    26 C2     *d0       -0.0000    0.0000   -0.0001   -0.0001   -0.0001    0.0000   -0.0026   -0.0037   -0.0044    0.0013
    27 C2     *d1+      -0.0000    0.0001   -0.0000   -0.0000   -0.0000   -0.0001   -0.0017   -0.0011    0.0006   -0.0001
    28 C2     *d2+      -0.0000    0.0001   -0.0001   -0.0002    0.0001   -0.0001   -0.0039   -0.0051   -0.0058    0.0018
    29 H3     1s        -0.0001    0.0001    0.0003   -0.0002   -0.0002   -0.0000    0.0118    0.0201    0.1258   -0.2336
    30 H3     *s         0.0002   -0.0001   -0.0000   -0.0010   -0.0001    0.0004   -0.0040   -0.0128   -0.0541    0.1006
    31 H3     *px        0.0000    0.0000    0.0000    0.0002    0.0001   -0.0000    0.0006    0.0009    0.0033   -0.0078
    32 H3     *py        0.0000    0.0001    0.0000   -0.0002    0.0000    0.0000   -0.0017   -0.0009   -0.0067    0.0098
    33 H3     *pz       -0.0000   -0.0000    0.0000   -0.0004    0.0000    0.0000   -0.0004   -0.0014   -0.0086    0.0146
    34 H4     1s         0.0000   -0.0001    0.0004   -0.0001   -0.0000   -0.0002    0.0122    0.0272    0.1222   -0.2536
    35 H4     *s        -0.0001    0.0001   -0.0003   -0.0011    0.0004   -0.0001   -0.0043   -0.0140   -0.0561    0.1100
    36 H4     *px        0.0000    0.0000    0.0000   -0.0005    0.0000   -0.0000   -0.0015   -0.0026   -0.0110    0.0195
    37 H4     *py        0.0000    0.0001    0.0001    0.0000   -0.0000    0.0000   -0.0007   -0.0010   -0.0016   -0.0001
    38 H4     *pz       -0.0000   -0.0000    0.0000   -0.0000    0.0000    0.0001    0.0004    0.0007   -0.0010    0.0007
    39 O5     1s         0.0033    1.0009    0.0000    0.0000   -0.0000   -0.0000   -0.0097   -0.0028    0.0020    0.0001
    40 O5     2s        -0.0002    0.0040   -0.0002    0.0002   -0.0002   -0.0001    0.6223    0.5094   -0.3873   -0.0075
    41 O5     *s         0.0003   -0.0069   -0.0009   -0.0000    0.0001    0.0002    0.0054   -0.0056   -0.0351   -0.0014
    42 O5     2px        0.0001   -0.0009    0.0002   -0.0000    0.0001   -0.0000   -0.0159   -0.0334   -0.0413   -0.0232
    43 O5     *px       -0.0001    0.0016   -0.0002    0.0000   -0.0002    0.0002    0.0058    0.0026    0.0013    0.0121
    44 O5     2py       -0.0001    0.0010   -0.0002    0.0001   -0.0000    0.0000    0.0211    0.0341    0.0479   -0.0207
    45 O5     *py        0.0002   -0.0018    0.0002   -0.0002    0.0001   -0.0002   -0.0061   -0.0016   -0.0025    0.0111
    46 O5     2pz       -0.0002   -0.0010    0.0002   -0.0000    0.0000    0.0001   -0.0553   -0.1306   -0.0190   -0.0008
    47 O5     *pz        0.0008    0.0017    0.0001   -0.0000    0.0000   -0.0006   -0.0001    0.0250    0.0049   -0.0001
    48 O5     *d2-       0.0000    0.0000   -0.0001   -0.0000    0.0000    0.0000   -0.0042   -0.0024   -0.0015   -0.0003
    49 O5     *d1-       0.0001    0.0001   -0.0001    0.0000   -0.0000    0.0000   -0.0009   -0.0083   -0.0018    0.0014
    50 O5     *d0        0.0000   -0.0001    0.0002    0.0000   -0.0000    0.0001    0.0070    0.0018    0.0003    0.0003
    51 O5     *d1+      -0.0000   -0.0000    0.0001   -0.0000    0.0000   -0.0000    0.0016    0.0067    0.0014    0.0015
    52 O5     *d2+      -0.0000    0.0000   -0.0000    0.0000    0.0000    0.0000   -0.0010   -0.0000   -0.0003    0.0022
    53 O6     1s         1.0005   -0.0034    0.0001    0.0000   -0.0000   -0.0001   -0.0048    0.0041    0.0004   -0.0001
    54 O6     2s         0.0026   -0.0003    0.0005    0.0001   -0.0000   -0.0002    0.5913   -0.6703    0.1345    0.0070
    55 O6     *s        -0.0027    0.0009   -0.0008   -0.0000   -0.0002    0.0005   -0.0608    0.0311   -0.0009    0.0017
    56 O6     2px        0.0016   -0.0001   -0.0000    0.0000    0.0000   -0.0000    0.0338   -0.0554    0.0029   -0.0047
    57 O6     *px       -0.0013    0.0002    0.0001   -0.0001   -0.0002    0.0001   -0.0343    0.0350   -0.0024    0.0006
    58 O6     2py       -0.0008    0.0001    0.0000    0.0000    0.0000    0.0000   -0.0108    0.0125    0.0090   -0.0011
    59 O6     *py        0.0009   -0.0002   -0.0001   -0.0001   -0.0000   -0.0001    0.0225   -0.0167   -0.0020    0.0012
    60 O6     2pz        0.0010    0.0001   -0.0001   -0.0001    0.0001    0.0000    0.0389   -0.1102    0.0308   -0.0006
    61 O6     *pz        0.0001   -0.0003    0.0007    0.0001   -0.0002   -0.0002   -0.0050    0.0409   -0.0095   -0.0017
    62 O6     *d2-      -0.0001   -0.0000   -0.0000   -0.0000    0.0000   -0.0000   -0.0028    0.0018    0.0007    0.0000
    63 O6     *d1-      -0.0001    0.0000    0.0000    0.0000    0.0000    0.0000    0.0018    0.0033   -0.0027    0.0003
    64 O6     *d0       -0.0000    0.0001   -0.0001    0.0000   -0.0000    0.0000    0.0031    0.0002   -0.0007   -0.0000
    65 O6     *d1+       0.0002   -0.0000    0.0000    0.0000   -0.0000   -0.0000    0.0002   -0.0054    0.0029    0.0004
    66 O6     *d2+       0.0001    0.0000   -0.0000    0.0000   -0.0000    0.0000    0.0008   -0.0020    0.0006    0.0000
    67 H7     1s        -0.0003   -0.0003   -0.0002    0.0000    0.0003   -0.0001    0.2232   -0.3063    0.0621    0.0006
    68 H7     *s         0.0006    0.0002   -0.0000   -0.0000   -0.0001    0.0001   -0.1018    0.1460   -0.0322   -0.0000
    69 H7     *px        0.0006    0.0000    0.0001    0.0000   -0.0000    0.0000   -0.0203    0.0262   -0.0048   -0.0001
    70 H7     *py       -0.0003    0.0000   -0.0000    0.0000    0.0000   -0.0000    0.0098   -0.0130    0.0026    0.0001
    71 H7     *pz        0.0004    0.0001   -0.0001   -0.0000   -0.0000    0.0000   -0.0172    0.0202   -0.0036   -0.0000
    72 C8     1s        -0.0001   -0.0000   -0.0045    0.0022   -0.0047    1.0019   -0.0012   -0.0037   -0.0105   -0.0026
    73 C8     2s        -0.0004   -0.0001    0.0000    0.0007   -0.0007    0.0105    0.0421    0.1129    0.3281    0.0858
    74 C8     *s         0.0012   -0.0009   -0.0026   -0.0014    0.0013   -0.0125   -0.0273   -0.0328   -0.1185   -0.0270
    75 C8     2px       -0.0000    0.0001    0.0001    0.0000    0.0002    0.0001   -0.0051   -0.0150   -0.0395   -0.0326
    76 C8     *px       -0.0001   -0.0000    0.0003   -0.0001   -0.0009    0.0004    0.0060    0.0021    0.0168    0.0159
    77 C8     2py        0.0000   -0.0001   -0.0002    0.0002   -0.0000   -0.0001    0.0073    0.0211    0.0517   -0.0266
    78 C8     *py        0.0002    0.0000   -0.0005   -0.0009    0.0001   -0.0006   -0.0077   -0.0031   -0.0225    0.0116
    79 C8     2pz       -0.0000   -0.0002   -0.0002    0.0000   -0.0000   -0.0003    0.0177    0.0474    0.0404    0.0024
    80 C8     *pz        0.0004   -0.0005   -0.0008   -0.0001    0.0002   -0.0006   -0.0029   -0.0132   -0.0226   -0.0036
    81 C8     *d2-      -0.0000   -0.0001   -0.0000   -0.0000   -0.0000    0.0001   -0.0004   -0.0017   -0.0044   -0.0005
    82 C8     *d1-       0.0000   -0.0001    0.0001   -0.0000    0.0000   -0.0002    0.0031    0.0061    0.0064   -0.0015
    83 C8     *d0        0.0000    0.0000    0.0001    0.0001   -0.0001   -0.0001    0.0024    0.0025    0.0008    0.0002
    84 C8     *d1+      -0.0000    0.0001   -0.0001    0.0000   -0.0000    0.0001   -0.0023   -0.0046   -0.0049   -0.0024
    85 C8     *d2+      -0.0000   -0.0000   -0.0000    0.0001    0.0001    0.0000   -0.0002   -0.0006   -0.0013    0.0017
    86 H9     1s        -0.0001    0.0001    0.0003    0.0000   -0.0002    0.0002    0.0091    0.0318    0.1064    0.0604
    87 H9     *s         0.0000   -0.0001   -0.0001   -0.0004   -0.0001    0.0010   -0.0034   -0.0132   -0.0487   -0.0290
    88 H9     *px        0.0000    0.0000    0.0000    0.0000    0.0001   -0.0002    0.0003    0.0009    0.0016    0.0011
    89 H9     *py       -0.0000   -0.0000   -0.0000    0.0000   -0.0000   -0.0004    0.0012    0.0030    0.0096    0.0031
    90 H9     *pz       -0.0000   -0.0001   -0.0001   -0.0000   -0.0000    0.0001    0.0004    0.0009   -0.0003   -0.0017
    91 H10    1s        -0.0001    0.0001    0.0003    0.0002   -0.0000    0.0002    0.0092    0.0316    0.1066    0.0120
    92 H10    *s         0.0001   -0.0001   -0.0001    0.0001    0.0004    0.0010   -0.0033   -0.0132   -0.0488   -0.0023
    93 H10    *px        0.0000    0.0000    0.0000    0.0000    0.0000    0.0005   -0.0013   -0.0031   -0.0097   -0.0024
    94 H10    *py       -0.0000   -0.0000   -0.0000    0.0001    0.0000    0.0001    0.0001   -0.0002    0.0006    0.0000
    95 H10    *pz       -0.0000   -0.0001   -0.0001    0.0000    0.0000    0.0001    0.0005    0.0011    0.0002    0.0014
    96 H11    1s        -0.0000   -0.0001    0.0001    0.0002   -0.0002    0.0002    0.0154    0.0239    0.1242    0.0349
    97 H11    *s         0.0001    0.0001   -0.0001    0.0001   -0.0001    0.0011   -0.0014   -0.0139   -0.0603   -0.0154
    98 H11    *px       -0.0000   -0.0000    0.0000    0.0000    0.0001   -0.0002    0.0006    0.0009    0.0034    0.0001
    99 H11    *py        0.0000    0.0001   -0.0000    0.0001    0.0000    0.0002   -0.0007   -0.0010   -0.0038   -0.0017
   100 H11    *pz        0.0000    0.0000   -0.0001   -0.0000    0.0000   -0.0004    0.0010    0.0029    0.0090    0.0026
   101 C12    1s         0.0000   -0.0001   -0.0046    0.0038    1.0019    0.0043   -0.0009   -0.0019   -0.0116   -0.0154
   102 C12    2s         0.0000   -0.0002    0.0003    0.0007    0.0104   -0.0007    0.0506    0.0897    0.3640    0.4953
   103 C12    *s        -0.0004   -0.0000   -0.0039   -0.0014   -0.0123    0.0014   -0.0153   -0.0440   -0.1410   -0.1528
   104 C12    2px       -0.0000   -0.0002   -0.0003    0.0001   -0.0002   -0.0001    0.0311    0.0415    0.0725    0.0023
   105 C12    *px       -0.0000    0.0001   -0.0015   -0.0005   -0.0009    0.0006   -0.0079   -0.0193   -0.0386   -0.0151
   106 C12    2py       -0.0000    0.0000   -0.0001    0.0001   -0.0000    0.0001   -0.0003   -0.0021    0.0168   -0.0268
   107 C12    *py       -0.0001    0.0002   -0.0001   -0.0007   -0.0000   -0.0004    0.0015   -0.0012   -0.0095    0.0136
   108 C12    2pz       -0.0000   -0.0001    0.0000   -0.0000   -0.0002    0.0001    0.0076    0.0025   -0.0177   -0.0037
   109 C12    *pz       -0.0000   -0.0003   -0.0003    0.0001    0.0002   -0.0006   -0.0008   -0.0007    0.0057   -0.0020
   110 C12    *d2-      -0.0000    0.0001   -0.0000   -0.0001   -0.0000   -0.0001   -0.0001   -0.0005    0.0026   -0.0017
   111 C12    *d1-       0.0000   -0.0001    0.0000    0.0000   -0.0000    0.0001    0.0009    0.0012   -0.0004   -0.0001
   112 C12    *d0       -0.0000    0.0000   -0.0001    0.0001    0.0001    0.0000   -0.0027   -0.0041   -0.0041   -0.0013
   113 C12    *d1+      -0.0001   -0.0000   -0.0000    0.0000    0.0000   -0.0001    0.0025   -0.0001   -0.0026   -0.0008
   114 C12    *d2+      -0.0000   -0.0000    0.0001    0.0000   -0.0002    0.0000    0.0042    0.0054    0.0075    0.0016
   115 H13    1s         0.0000   -0.0001    0.0004    0.0000    0.0002   -0.0002    0.0126    0.0263    0.1194    0.2255
   116 H13    *s        -0.0001    0.0001   -0.0003   -0.0004    0.0011   -0.0001   -0.0040   -0.0141   -0.0546   -0.0988
   117 H13    *px       -0.0000   -0.0001   -0.0001    0.0000   -0.0000   -0.0000    0.0012    0.0013    0.0039    0.0032
   118 H13    *py        0.0000   -0.0000    0.0000    0.0000   -0.0005    0.0000    0.0014    0.0023    0.0101    0.0167
   119 H13    *pz       -0.0000   -0.0000    0.0000   -0.0000    0.0000    0.0001    0.0006    0.0002   -0.0014   -0.0016
   120 H14    1s         0.0001   -0.0000    0.0003    0.0002    0.0002   -0.0002    0.0063    0.0231    0.1390    0.2023
   121 H14    *s         0.0000    0.0001   -0.0003    0.0001    0.0012   -0.0001   -0.0056   -0.0103   -0.0642   -0.0883
   122 H14    *px        0.0000    0.0001   -0.0001    0.0000   -0.0001   -0.0000    0.0006    0.0017    0.0043    0.0066
   123 H14    *py       -0.0000   -0.0000   -0.0000    0.0001    0.0002    0.0000   -0.0001   -0.0009   -0.0042   -0.0068
   124 H14    *pz        0.0000    0.0000    0.0000   -0.0000   -0.0004    0.0001    0.0003    0.0022    0.0099    0.0139
   125 H15    1s        -0.0001    0.0001    0.0003    0.0002    0.0002   -0.0000    0.0134    0.0181    0.1229    0.1955
   126 H15    *s         0.0002   -0.0000   -0.0000    0.0001    0.0009    0.0004   -0.0064   -0.0094   -0.0535   -0.0836
   127 H15    *px       -0.0000   -0.0001   -0.0001    0.0000   -0.0001   -0.0000    0.0016    0.0004    0.0053    0.0066
   128 H15    *py       -0.0000   -0.0000   -0.0000    0.0001    0.0003    0.0000   -0.0010   -0.0011   -0.0048   -0.0086
   129 H15    *pz       -0.0000   -0.0000    0.0000   -0.0000    0.0004    0.0000   -0.0002   -0.0017   -0.0085   -0.0124
   130 H16    1s         0.0002   -0.0001    0.0002   -0.0002   -0.0002   -0.0002    0.0074    0.0219    0.1419   -0.2327
   131 H16    *s         0.0000    0.0001   -0.0003   -0.0012   -0.0001   -0.0001   -0.0038   -0.0125   -0.0650    0.1010
   132 H16    *px        0.0000   -0.0000    0.0000    0.0002    0.0001   -0.0000    0.0001    0.0004    0.0036   -0.0063
   133 H16    *py       -0.0000   -0.0001    0.0001   -0.0001    0.0000    0.0001   -0.0006   -0.0017   -0.0048    0.0084
   134 H16    *pz        0.0000    0.0000    0.0000    0.0004   -0.0000    0.0001    0.0005    0.0019    0.0103   -0.0163
 
 
      Orbital                11        12        13        14        15        16        17        18        19        20
      Energy            -0.9356   -0.7470   -0.6733   -0.6133   -0.6056   -0.5879   -0.5441   -0.5392   -0.5136   -0.5110
      Occ. No.           2.0000    2.0000    2.0000    2.0000    2.0000    2.0000    2.0000    2.0000    2.0000    2.0000
 
     1 C1     1s        -0.0000    0.0006    0.0009    0.0020   -0.0002    0.0005   -0.0000   -0.0001   -0.0007    0.0037
     2 C1     2s         0.0006   -0.5331   -0.1739    0.0012   -0.0034    0.0310    0.0090    0.0003    0.0149   -0.0645
     3 C1     *s        -0.0048    0.1034   -0.0167   -0.0179    0.0014    0.0088    0.0030    0.0041    0.0129   -0.0602
     4 C1     2px       -0.1472   -0.0165    0.0071    0.2137    0.2583   -0.1265   -0.0616   -0.0846   -0.0420    0.1373
     5 C1     *px        0.0046    0.0266   -0.0130   -0.0319   -0.0243    0.0110   -0.0005    0.0058    0.0101   -0.0522
     6 C1     2py        0.1372    0.0160   -0.0236   -0.1931    0.2626    0.1559   -0.0698    0.0638    0.0336   -0.1534
     7 C1     *py       -0.0030   -0.0374    0.0337    0.0259   -0.0271   -0.0229   -0.0004   -0.0115   -0.0147    0.0568
     8 C1     2pz        0.1481   -0.0584    0.1992    0.1425   -0.0043    0.2313   -0.0090    0.0860   -0.0520    0.3077
     9 C1     *pz        0.0023    0.0194    0.0010   -0.0282    0.0026   -0.0257    0.0005   -0.0032    0.0151   -0.0847
    10 C1     *d2-       0.0118    0.0017   -0.0027    0.0021   -0.0014   -0.0074   -0.0075    0.0196    0.0028   -0.0135
    11 C1     *d1-      -0.0157    0.0046   -0.0034   -0.0038   -0.0033    0.0007   -0.0134   -0.0060    0.0057   -0.0295
    12 C1     *d0       -0.0148   -0.0066    0.0073    0.0024   -0.0000   -0.0060   -0.0027    0.0093   -0.0061    0.0281
    13 C1     *d1+       0.0109   -0.0041    0.0024    0.0035   -0.0046    0.0025   -0.0193   -0.0039   -0.0049    0.0255
    14 C1     *d2+       0.0067    0.0005   -0.0007    0.0009    0.0033   -0.0025    0.0027    0.0056    0.0009   -0.0020
    15 C2     1s        -0.0063   -0.0093   -0.0007   -0.0004    0.0031    0.0015   -0.0010    0.0003   -0.0000    0.0002
    16 C2     2s         0.2202    0.1849    0.0219    0.0385   -0.0522    0.0044   -0.0134    0.0049    0.0048   -0.0239
    17 C2     *s        -0.0706   -0.0098   -0.0145    0.0082   -0.0124    0.0008    0.0058    0.0015    0.0001    0.0011
    18 C2     2px       -0.0284    0.0677    0.0184    0.2922    0.0840   -0.2520   -0.1604    0.1446    0.3256   -0.0131
    19 C2     *px        0.0146   -0.0280    0.0038   -0.0615   -0.0212    0.0418    0.0234   -0.0164   -0.0450    0.0080
    20 C2     2py        0.0121    0.2250    0.1021    0.0345   -0.3186   -0.0078    0.1042   -0.0734   -0.1399    0.1539
    21 C2     *py        0.0004   -0.0632   -0.0287    0.0022    0.0622    0.0119   -0.0220    0.0102    0.0177   -0.0239
    22 C2     2pz        0.0247   -0.0349    0.1277    0.1285   -0.0129    0.2926   -0.4224    0.0494   -0.1308   -0.2396
    23 C2     *pz       -0.0161    0.0093   -0.0391   -0.0309   -0.0056   -0.0637    0.0602   -0.0139    0.0164    0.0387
    24 C2     *d2-       0.0025   -0.0074   -0.0038   -0.0059    0.0060    0.0025   -0.0017    0.0047    0.0053   -0.0073
    25 C2     *d1-      -0.0014    0.0004    0.0006    0.0018   -0.0012    0.0046   -0.0123   -0.0009   -0.0044   -0.0143
    26 C2     *d0       -0.0001    0.0089    0.0028   -0.0053   -0.0121    0.0006    0.0102   -0.0051   -0.0109    0.0081
    27 C2     *d1+      -0.0010    0.0020   -0.0043   -0.0038    0.0002   -0.0092    0.0094   -0.0016    0.0052    0.0048
    28 C2     *d2+       0.0010    0.0120    0.0041    0.0080   -0.0080   -0.0064   -0.0024    0.0050    0.0098    0.0003
    29 H3     1s         0.1170    0.1499    0.1529    0.0221   -0.2269    0.3050   -0.2179   -0.0572   -0.3089   -0.1259
    30 H3     *s        -0.0511   -0.0578   -0.0298   -0.0128    0.0730   -0.1048    0.0648    0.0126    0.0826    0.0256
    31 H3     *px        0.0036    0.0050    0.0037    0.0063   -0.0030    0.0021   -0.0078    0.0021    0.0001   -0.0025
    32 H3     *py       -0.0027   -0.0013   -0.0047   -0.0005    0.0014   -0.0073    0.0080    0.0008    0.0055    0.0064
    33 H3     *pz       -0.0069   -0.0095   -0.0036    0.0017    0.0107   -0.0085    0.0007    0.0026    0.0107    0.0001
    34 H4     1s         0.0734    0.1651    0.0378    0.3099    0.0396   -0.2370   -0.1809    0.1501    0.3391   -0.0368
    35 H4     *s        -0.0287   -0.0490   -0.0166   -0.0952   -0.0122    0.0723    0.0528   -0.0407   -0.0840    0.0007
    36 H4     *px       -0.0070   -0.0105   -0.0020   -0.0122    0.0003    0.0088    0.0065   -0.0048   -0.0115    0.0009
    37 H4     *py       -0.0013    0.0031    0.0018   -0.0012   -0.0052   -0.0001    0.0024   -0.0023   -0.0035    0.0031
    38 H4     *pz        0.0007   -0.0014    0.0026    0.0021   -0.0002    0.0072   -0.0082    0.0012   -0.0035   -0.0046
    39 O5     1s        -0.0004    0.0006   -0.0005    0.0016   -0.0002    0.0010    0.0002    0.0002    0.0003   -0.0016
    40 O5     2s         0.0324    0.2569   -0.0657   -0.1330    0.0104   -0.0108   -0.0081    0.0229    0.0090   -0.0453
    41 O5     *s         0.0056    0.0555   -0.0200   -0.0690    0.0054   -0.0189   -0.0059    0.0052    0.0007   -0.0049
    42 O5     2px       -0.0192    0.1928   -0.1296   -0.1284    0.0638   -0.0301   -0.0226   -0.0220    0.0539   -0.2753
    43 O5     *px        0.0077    0.0025    0.0038   -0.0145   -0.0148    0.0044    0.0073    0.0084    0.0052   -0.0194
    44 O5     2py        0.0165   -0.2172    0.1193    0.1707    0.0360    0.0527   -0.0328    0.0155   -0.0644    0.3232
    45 O5     *py       -0.0063   -0.0014   -0.0055    0.0137   -0.0153   -0.0050    0.0085   -0.0049   -0.0036    0.0221
    46 O5     2pz        0.0074    0.2238   -0.0877   -0.2210    0.0161   -0.0358   -0.0033    0.0179    0.0717   -0.3574
    47 O5     *pz       -0.0038   -0.0085   -0.0129    0.0133   -0.0009   -0.0017    0.0016   -0.0027    0.0034   -0.0171
    48 O5     *d2-      -0.0014    0.0071   -0.0062   -0.0020    0.0005   -0.0014   -0.0002   -0.0001    0.0014   -0.0069
    49 O5     *d1-      -0.0007    0.0085   -0.0007   -0.0068   -0.0025   -0.0036    0.0006   -0.0016    0.0021   -0.0099
    50 O5     *d0       -0.0031   -0.0016   -0.0057    0.0052   -0.0006   -0.0006    0.0009   -0.0021   -0.0004    0.0019
    51 O5     *d1+       0.0006   -0.0068   -0.0015    0.0062   -0.0039    0.0044    0.0005    0.0018   -0.0014    0.0090
    52 O5     *d2+       0.0001    0.0010    0.0001   -0.0012   -0.0034   -0.0010    0.0021    0.0005    0.0001   -0.0016
    53 O6     1s         0.0011   -0.0015   -0.0014    0.0023   -0.0001    0.0019    0.0001    0.0011   -0.0000    0.0010
    54 O6     2s        -0.0236   -0.1102    0.2102   -0.0459    0.0031   -0.1454   -0.0062   -0.0571   -0.0036   -0.0121
    55 O6     *s        -0.0048   -0.0192    0.1228   -0.0603    0.0046   -0.0924   -0.0065   -0.0362    0.0000   -0.0279
    56 O6     2px       -0.0281    0.0846   -0.4475    0.1969   -0.0222    0.2619    0.0163    0.0720   -0.0147    0.1082
    57 O6     *px        0.0062   -0.0080    0.0330   -0.0103   -0.0022   -0.0108    0.0015   -0.0029   -0.0002   -0.0038
    58 O6     2py        0.0162   -0.0657    0.2522   -0.0897    0.0076   -0.1292   -0.0236   -0.0399   -0.0055   -0.0299
    59 O6     *py       -0.0034    0.0069   -0.0154    0.0012   -0.0035    0.0017    0.0027    0.0026    0.0003   -0.0001
    60 O6     2pz       -0.0237    0.0285   -0.3044    0.1544   -0.0152    0.1790    0.0178    0.0534   -0.0125    0.1079
    61 O6     *pz        0.0145   -0.0081    0.0387   -0.0136    0.0023   -0.0101   -0.0039    0.0031    0.0004   -0.0066
    62 O6     *d2-       0.0005   -0.0037    0.0095   -0.0019    0.0001   -0.0049   -0.0007   -0.0014   -0.0005    0.0006
    63 O6     *d1-       0.0004    0.0021    0.0050   -0.0051    0.0003   -0.0043    0.0001   -0.0007    0.0009   -0.0041
    64 O6     *d0        0.0004   -0.0018    0.0046   -0.0007    0.0002   -0.0010   -0.0004    0.0000   -0.0006    0.0028
    65 O6     *d1+      -0.0006   -0.0014   -0.0093    0.0070   -0.0009    0.0068    0.0015    0.0019   -0.0005    0.0055
    66 O6     *d2+      -0.0003    0.0003   -0.0056    0.0033   -0.0000    0.0037    0.0005    0.0011   -0.0000    0.0025
    67 H7     1s        -0.0448    0.0500   -0.4872    0.2459   -0.0243    0.2867    0.0305    0.0789   -0.0161    0.1553
    68 H7     *s         0.0180   -0.0109    0.1909   -0.1058    0.0098   -0.1124   -0.0117   -0.0290    0.0092   -0.0718
    69 H7     *px        0.0033   -0.0014    0.0217   -0.0112    0.0012   -0.0115   -0.0013   -0.0029    0.0011   -0.0078
    70 H7     *py       -0.0013   -0.0002   -0.0087    0.0057   -0.0003    0.0052    0.0003    0.0014   -0.0006    0.0050
    71 H7     *pz        0.0027   -0.0032    0.0242   -0.0106    0.0011   -0.0119   -0.0013   -0.0030    0.0001   -0.0038
    72 C8     1s         0.0191   -0.0070   -0.0043    0.0015   -0.0004   -0.0020    0.0004   -0.0014    0.0001   -0.0002
    73 C8     2s        -0.6333    0.1497    0.0873    0.0045    0.0039    0.0487    0.0066   -0.0165    0.0028   -0.0161
    74 C8     *s         0.2015   -0.0446    0.0297    0.0064    0.0003    0.0079   -0.0007    0.0016   -0.0045    0.0174
    75 C8     2px       -0.0103    0.0801    0.1001    0.1364    0.2988    0.1137    0.1932   -0.1581   -0.2827   -0.0923
    76 C8     *px       -0.0010   -0.0186   -0.0298   -0.0360   -0.0610   -0.0190   -0.0224    0.0245    0.0390    0.0115
    77 C8     2py        0.0034   -0.1086   -0.1403   -0.1042    0.2394   -0.1995    0.0188    0.2430   -0.2524   -0.0186
    78 C8     *py        0.0065    0.0263    0.0398    0.0300   -0.0502    0.0347    0.0024   -0.0321    0.0335    0.0044
    79 C8     2pz       -0.0030   -0.1664   -0.1143    0.2175   -0.0513   -0.1306    0.1160   -0.4035    0.0522   -0.2277
    80 C8     *pz        0.0221    0.0412    0.0329   -0.0618    0.0121    0.0246   -0.0211    0.0682   -0.0082    0.0347
    81 C8     *d2-      -0.0001    0.0045    0.0062    0.0067   -0.0018    0.0058    0.0005   -0.0060    0.0032    0.0034
    82 C8     *d1-      -0.0013   -0.0119   -0.0072    0.0070    0.0031   -0.0076    0.0021   -0.0110   -0.0006   -0.0083
    83 C8     *d0       -0.0005   -0.0050   -0.0026   -0.0037   -0.0004   -0.0068   -0.0049    0.0137   -0.0026    0.0117
    84 C8     *d1+       0.0005    0.0090    0.0048   -0.0051    0.0064    0.0053   -0.0044    0.0093   -0.0027    0.0068
    85 C8     *d2+       0.0003    0.0014    0.0020    0.0017    0.0081    0.0004    0.0074    0.0011   -0.0159   -0.0024
    86 H9     1s        -0.2669    0.1407    0.1370    0.0793   -0.3039    0.1745   -0.0605   -0.2320    0.3451    0.0117
    87 H9     *s         0.1146   -0.0435   -0.0460   -0.0260    0.0933   -0.0518    0.0171    0.0681   -0.0874   -0.0120
    88 H9     *px       -0.0062    0.0038    0.0039    0.0040    0.0013    0.0044    0.0031   -0.0067   -0.0008   -0.0015
    89 H9     *py       -0.0203    0.0080    0.0062    0.0014   -0.0120    0.0065   -0.0027   -0.0067    0.0128    0.0006
    90 H9     *pz        0.0017   -0.0035   -0.0023    0.0045    0.0010   -0.0025    0.0022   -0.0072   -0.0008   -0.0046
    91 H10    1s        -0.2737    0.1408    0.1278    0.1335    0.3049    0.1234    0.2042   -0.1629   -0.3104   -0.1211
    92 H10    *s         0.1182   -0.0437   -0.0411   -0.0435   -0.0928   -0.0376   -0.0581    0.0475    0.0817    0.0207
    93 H10    *px        0.0214   -0.0089   -0.0065   -0.0041   -0.0118   -0.0056   -0.0069    0.0053    0.0111    0.0042
    94 H10    *py        0.0017   -0.0021   -0.0027   -0.0027    0.0040   -0.0036   -0.0002    0.0056   -0.0042   -0.0002
    95 H10    *pz        0.0009   -0.0029   -0.0018    0.0045   -0.0020   -0.0018    0.0025   -0.0077    0.0019   -0.0043
    96 H11    1s        -0.2594    0.1494    0.0647   -0.2748    0.0371    0.0291   -0.1640    0.5129   -0.0516    0.2544
    97 H11    *s         0.1143   -0.0456   -0.0180    0.0637   -0.0088   -0.0076    0.0399   -0.1266    0.0107   -0.0517
    98 H11    *px       -0.0071    0.0043    0.0028   -0.0022    0.0065    0.0027    0.0013    0.0056   -0.0067    0.0010
    99 H11    *py        0.0076   -0.0051   -0.0036    0.0033    0.0040   -0.0044    0.0036   -0.0046   -0.0047   -0.0035
   100 H11    *pz       -0.0186    0.0062    0.0022   -0.0093    0.0009    0.0001   -0.0054    0.0164   -0.0012    0.0069
   101 C12    1s        -0.0107   -0.0094   -0.0002   -0.0011   -0.0028    0.0015    0.0009    0.0009    0.0000    0.0001
   102 C12    2s         0.3607    0.1931    0.0046    0.0557    0.0443    0.0028    0.0157    0.0152    0.0065   -0.0223
   103 C12    *s        -0.1138   -0.0147   -0.0047    0.0070    0.0111   -0.0066   -0.0052   -0.0048    0.0007   -0.0010
   104 C12    2px       -0.0039   -0.2359   -0.0683   -0.1559   -0.2578    0.0856    0.0678    0.0900    0.0191   -0.1733
   105 C12    *px       -0.0078    0.0660    0.0282    0.0181    0.0518   -0.0311   -0.0195   -0.0213   -0.0051    0.0222
   106 C12    2py        0.0250   -0.0183    0.0013   -0.2294    0.2282    0.2269   -0.0385   -0.2203    0.3178    0.1612
   107 C12    *py       -0.0118    0.0146   -0.0124    0.0524   -0.0495   -0.0327    0.0124    0.0308   -0.0400   -0.0266
   108 C12    2pz        0.0233   -0.0242    0.1528    0.1204    0.0335    0.2043    0.3800    0.2853    0.2025   -0.1439
   109 C12    *pz       -0.0159    0.0053   -0.0432   -0.0301    0.0009   -0.0507   -0.0554   -0.0485   -0.0294    0.0260
   110 C12    *d2-       0.0025   -0.0017   -0.0016   -0.0022   -0.0014    0.0007   -0.0007    0.0072   -0.0050   -0.0089
   111 C12    *d1-       0.0005   -0.0018    0.0049    0.0033    0.0014    0.0079    0.0109    0.0072    0.0094   -0.0032
   112 C12    *d0       -0.0007    0.0089    0.0017   -0.0024    0.0128   -0.0004   -0.0063   -0.0103    0.0069    0.0103
   113 C12    *d1+       0.0013    0.0008    0.0005   -0.0001    0.0006   -0.0010   -0.0104   -0.0056   -0.0069    0.0114
   114 C12    *d2+       0.0006   -0.0140   -0.0043   -0.0119   -0.0070    0.0065    0.0001   -0.0032    0.0073   -0.0005
   115 H13    1s         0.1365    0.1684    0.0291    0.2919   -0.1231   -0.2192    0.0580    0.2247   -0.3077   -0.1487
   116 H13    *s        -0.0564   -0.0512   -0.0121   -0.0910    0.0383    0.0674   -0.0177   -0.0635    0.0813    0.0297
   117 H13    *px        0.0037   -0.0008   -0.0007    0.0026   -0.0057   -0.0012    0.0020    0.0052   -0.0037   -0.0051
   118 H13    *py        0.0113    0.0111    0.0020    0.0116   -0.0018   -0.0083    0.0024    0.0068   -0.0098   -0.0039
   119 H13    *pz       -0.0001   -0.0018    0.0031    0.0011    0.0011    0.0059    0.0074    0.0052    0.0057   -0.0020
   120 H14    1s         0.1455    0.1885   -0.0892   -0.0984    0.1806   -0.1270   -0.3748   -0.3681   -0.0688    0.2812
   121 H14    *s        -0.0630   -0.0641    0.0295    0.0231   -0.0460    0.0274    0.0953    0.0938    0.0128   -0.0539
   122 H14    *px        0.0049    0.0016   -0.0031   -0.0042    0.0001   -0.0013   -0.0070   -0.0061   -0.0014    0.0037
   123 H14    *py       -0.0037   -0.0051    0.0023   -0.0027    0.0008    0.0070    0.0066    0.0025    0.0080   -0.0010
   124 H14    *pz        0.0108    0.0101   -0.0012   -0.0020    0.0095   -0.0020   -0.0091   -0.0110    0.0015    0.0080
   125 H15    1s         0.1728    0.1516    0.1477    0.0592    0.2547    0.2259    0.2575    0.0784    0.3295    0.0166
   126 H15    *s        -0.0747   -0.0596   -0.0222   -0.0287   -0.0810   -0.0852   -0.0790   -0.0292   -0.0879   -0.0151
   127 H15    *px        0.0033   -0.0003    0.0041   -0.0012    0.0012    0.0045    0.0066    0.0025    0.0067   -0.0033
   128 H15    *py       -0.0067   -0.0055   -0.0047   -0.0063   -0.0028   -0.0020   -0.0077   -0.0068   -0.0025    0.0025
   129 H15    *pz       -0.0105   -0.0096   -0.0026   -0.0005   -0.0119   -0.0071   -0.0033    0.0017   -0.0103   -0.0042
   130 H16    1s         0.0874    0.1839   -0.0519   -0.1663   -0.1782   -0.1797    0.4691   -0.1198   -0.0535    0.3075
   131 H16    *s        -0.0383   -0.0621    0.0166    0.0428    0.0455    0.0435   -0.1236    0.0308    0.0106   -0.0603
   132 H16    *px        0.0013    0.0049   -0.0010    0.0029   -0.0011   -0.0081    0.0043    0.0012    0.0065    0.0034
   133 H16    *py       -0.0030   -0.0020    0.0028    0.0040   -0.0007    0.0044   -0.0090    0.0011   -0.0016   -0.0050
   134 H16    *pz        0.0068    0.0097    0.0002   -0.0052   -0.0092   -0.0027    0.0129   -0.0047   -0.0050    0.0074
 
 
      Orbital                21        22        23        24        25        26
      Energy            -0.4813   -0.4787   -0.3393   -0.0075   -0.0003   -0.0032
      Occ. No.           2.0000    2.0000    1.3486    1.8908    1.6510    1.1095
 
     1 C1     1s         0.0002   -0.0005    0.0004    0.0043    0.0002    0.0004
     2 C1     2s         0.0025   -0.0013   -0.0128    0.0030   -0.0137   -0.0095
     3 C1     *s        -0.0008   -0.0015   -0.0081   -0.0081   -0.0104    0.0218
     4 C1     2px       -0.3622   -0.2783    0.0347    0.0105   -0.0625   -0.0128
     5 C1     *px        0.0554    0.0447   -0.0407    0.0022   -0.0104    0.0045
     6 C1     2py       -0.3230    0.3097    0.0410   -0.0167   -0.0405    0.0105
     7 C1     *py        0.0507   -0.0484   -0.0341   -0.0167   -0.0124   -0.0075
     8 C1     2pz        0.0049    0.2724   -0.0219   -0.0605   -0.0193   -0.0777
     9 C1     *pz       -0.0043   -0.0238    0.0005   -0.0449    0.0028   -0.0182
    10 C1     *d2-      -0.0092    0.0211    0.0044    0.0080   -0.0037    0.0119
    11 C1     *d1-      -0.0025   -0.0189   -0.0104    0.0136    0.0113    0.0131
    12 C1     *d0        0.0018   -0.0183    0.0006    0.0130   -0.0006    0.0232
    13 C1     *d1+      -0.0064    0.0127   -0.0156   -0.0109    0.0091   -0.0094
    14 C1     *d2+       0.0326    0.0075   -0.0210    0.0011    0.0191    0.0019
    15 C2     1s        -0.0001    0.0005   -0.0015   -0.0003   -0.0005    0.0007
    16 C2     2s        -0.0872    0.0435    0.0390   -0.0198   -0.0705   -0.0161
    17 C2     *s        -0.0262    0.0072    0.0410    0.0181   -0.0011   -0.0190
    18 C2     2px        0.2833    0.0988   -0.0011    0.0093    0.0108    0.0104
    19 C2     *px       -0.0298   -0.0084    0.0094   -0.0041    0.0020    0.0123
    20 C2     2py        0.3262   -0.2445   -0.0934    0.0290    0.0804    0.0304
    21 C2     *py       -0.0382    0.0256   -0.0207    0.0044   -0.0305   -0.0009
    22 C2     2pz        0.0586   -0.1664   -0.0024   -0.0055   -0.0457   -0.0026
    23 C2     *pz       -0.0053    0.0098   -0.0059    0.0122    0.0199   -0.0063
    24 C2     *d2-      -0.0028    0.0145    0.0004   -0.0010    0.0001    0.0004
    25 C2     *d1-       0.0021   -0.0143   -0.0017   -0.0003   -0.0016    0.0031
    26 C2     *d0        0.0014   -0.0094   -0.0012    0.0020    0.0034   -0.0004
    27 C2     *d1+      -0.0021    0.0049   -0.0009    0.0004    0.0025    0.0015
    28 C2     *d2+       0.0220    0.0057   -0.0025    0.0004    0.0018    0.0006
    29 H3     1s         0.0721   -0.3202   -0.0193    0.0048   -0.0281    0.0142
    30 H3     *s        -0.0157    0.0640    0.0282   -0.0095    0.0257    0.0263
    31 H3     *px        0.0073   -0.0023    0.0000   -0.0001   -0.0005    0.0006
    32 H3     *py        0.0039    0.0047   -0.0030   -0.0006    0.0008   -0.0001
    33 H3     *pz       -0.0023    0.0081    0.0022    0.0003    0.0016   -0.0010
    34 H4     1s         0.3057    0.1252    0.0066   -0.0049   -0.0140   -0.0045
    35 H4     *s        -0.0546   -0.0212   -0.0217    0.0007    0.0298   -0.0069
    36 H4     *px       -0.0096   -0.0029   -0.0007    0.0002    0.0001    0.0008
    37 H4     *py        0.0039   -0.0063    0.0011    0.0000   -0.0002    0.0010
    38 H4     *pz        0.0004   -0.0036   -0.0011   -0.0001   -0.0003    0.0003
    39 O5     1s         0.0001   -0.0009   -0.0001   -0.0029   -0.0009    0.0026
    40 O5     2s        -0.0006    0.0094    0.0141   -0.0243    0.0019    0.2384
    41 O5     *s        -0.0004    0.0094    0.0112   -0.0359    0.0123    0.1716
    42 O5     2px       -0.0617   -0.0269   -0.5334   -0.2907    0.5026   -0.3032
    43 O5     *px        0.0104    0.0073   -0.0366   -0.0094    0.0311   -0.0605
    44 O5     2py       -0.0458    0.0291   -0.4631    0.3743    0.3799    0.3989
    45 O5     *py        0.0098   -0.0078   -0.0314    0.0164    0.0232    0.0738
    46 O5     2pz       -0.0060    0.0446    0.0364    0.4396   -0.0036    0.5937
    47 O5     *pz       -0.0007   -0.0050    0.0003   -0.0227   -0.0005    0.1055
    48 O5     *d2-      -0.0009   -0.0029   -0.0013   -0.0088    0.0019   -0.0029
    49 O5     *d1-       0.0030   -0.0009    0.0064    0.0102    0.0013   -0.0085
    50 O5     *d0        0.0003   -0.0069   -0.0020    0.0006   -0.0021   -0.0152
    51 O5     *d1+       0.0039    0.0008    0.0062   -0.0074   -0.0001    0.0066
    52 O5     *d2+       0.0055   -0.0003    0.0052   -0.0025   -0.0107   -0.0006
    53 O6     1s         0.0001    0.0010   -0.0006   -0.0008   -0.0008   -0.0027
    54 O6     2s        -0.0053   -0.0142   -0.0156   -0.0036   -0.0008   -0.2388
    55 O6     *s        -0.0049   -0.0162   -0.0059   -0.0465    0.0109   -0.1823
    56 O6     2px        0.0132    0.0067    0.4117    0.2842    0.3344   -0.2833
    57 O6     *px        0.0015   -0.0021    0.0268    0.0049    0.0150   -0.0486
    58 O6     2py       -0.0072   -0.0031    0.5577   -0.3131    0.5320    0.3382
    59 O6     *py        0.0027    0.0030    0.0369    0.0043    0.0236    0.0624
    60 O6     2pz        0.0094    0.0109   -0.1177   -0.5047   -0.1333    0.6224
    61 O6     *pz       -0.0022    0.0109   -0.0092    0.0131   -0.0082    0.1145
    62 O6     *d2-      -0.0002   -0.0001    0.0046   -0.0084    0.0038    0.0033
    63 O6     *d1-       0.0002    0.0005    0.0065    0.0095    0.0005    0.0091
    64 O6     *d0       -0.0001    0.0011   -0.0013    0.0007   -0.0009    0.0149
    65 O6     *d1+       0.0009   -0.0002    0.0039   -0.0114   -0.0043   -0.0048
    66 O6     *d2+       0.0000    0.0001    0.0062    0.0006    0.0117   -0.0035
    67 H7     1s         0.0171    0.0059    0.0281   -0.0335   -0.0287   -0.0076
    68 H7     *s        -0.0052   -0.0030   -0.0090   -0.0190    0.0145    0.0870
    69 H7     *px       -0.0007   -0.0003    0.0107    0.0089    0.0130   -0.0110
    70 H7     *py        0.0004    0.0004    0.0190   -0.0086    0.0156    0.0120
    71 H7     *pz       -0.0009    0.0004   -0.0042   -0.0091   -0.0037    0.0192
    72 C8     1s         0.0001   -0.0005    0.0001   -0.0000   -0.0000    0.0007
    73 C8     2s         0.0058   -0.0999    0.0017    0.0671    0.0028    0.0851
    74 C8     *s         0.0007   -0.0231   -0.0013   -0.0095   -0.0002    0.0254
    75 C8     2px        0.2002    0.2719    0.0145   -0.0173   -0.0135   -0.0188
    76 C8     *px       -0.0185   -0.0318    0.0131    0.0082   -0.0024   -0.0034
    77 C8     2py        0.1936   -0.3171    0.0153    0.0263   -0.0057    0.0287
    78 C8     *py       -0.0193    0.0377    0.0083   -0.0091   -0.0034    0.0031
    79 C8     2pz        0.0008   -0.2364    0.0032    0.0843    0.0070    0.0911
    80 C8     *pz       -0.0008    0.0367    0.0013   -0.0183    0.0019   -0.0321
    81 C8     *d2-      -0.0058    0.0094    0.0004    0.0015   -0.0004    0.0014
    82 C8     *d1-      -0.0032   -0.0106    0.0005    0.0031   -0.0005    0.0044
    83 C8     *d0        0.0014   -0.0146   -0.0006   -0.0006   -0.0004   -0.0054
    84 C8     *d1+      -0.0061    0.0064    0.0010   -0.0024   -0.0007   -0.0040
    85 C8     *d2+       0.0223    0.0043   -0.0020    0.0000    0.0009    0.0001
    86 H9     1s        -0.2811    0.1927   -0.0072    0.0170    0.0007    0.0338
    87 H9     *s         0.0525   -0.0346    0.0247   -0.0180   -0.0127   -0.0259
    88 H9     *px        0.0019    0.0075   -0.0003   -0.0002    0.0001   -0.0001
    89 H9     *py       -0.0093    0.0040    0.0002    0.0013   -0.0005    0.0010
    90 H9     *pz       -0.0002   -0.0047    0.0022    0.0000   -0.0018   -0.0005
    91 H10    1s         0.2538    0.2341    0.0070    0.0175   -0.0012    0.0345
    92 H10    *s        -0.0475   -0.0422   -0.0232   -0.0198    0.0138   -0.0270
    93 H10    *px       -0.0078   -0.0070   -0.0000   -0.0012   -0.0004   -0.0009
    94 H10    *py        0.0047   -0.0060   -0.0002    0.0005    0.0005    0.0003
    95 H10    *pz        0.0009   -0.0041   -0.0020    0.0001    0.0020   -0.0006
    96 H11    1s         0.0076   -0.0461   -0.0030   -0.0507   -0.0043   -0.0769
    97 H11    *s        -0.0025    0.0241    0.0001   -0.0041    0.0007   -0.0361
    98 H11    *px        0.0042    0.0045    0.0002   -0.0013   -0.0003   -0.0019
    99 H11    *py        0.0038   -0.0052    0.0003    0.0016   -0.0001    0.0025
   100 H11    *pz        0.0003   -0.0062   -0.0000    0.0003    0.0000    0.0014
   101 C12    1s        -0.0000    0.0004    0.0011    0.0002   -0.0001    0.0009
   102 C12    2s         0.0794    0.0528   -0.0451   -0.0172    0.0592   -0.0157
   103 C12    *s         0.0246    0.0098   -0.0377    0.0089    0.0052   -0.0217
   104 C12    2px        0.3463    0.2566   -0.0867   -0.0315    0.0844   -0.0332
   105 C12    *px       -0.0413   -0.0276   -0.0098   -0.0094   -0.0174   -0.0036
   106 C12    2py        0.2288   -0.1415    0.0120   -0.0025   -0.0134   -0.0036
   107 C12    *py       -0.0226    0.0119    0.0105    0.0078    0.0039   -0.0114
   108 C12    2pz       -0.0613   -0.1882   -0.0043   -0.0016    0.0264   -0.0004
   109 C12    *pz        0.0076    0.0125    0.0090    0.0098   -0.0144   -0.0062
   110 C12    *d2-      -0.0087    0.0149    0.0013   -0.0005    0.0000    0.0004
   111 C12    *d1-      -0.0004   -0.0096   -0.0008   -0.0003    0.0023   -0.0008
   112 C12    *d0       -0.0001   -0.0106    0.0019    0.0019   -0.0029   -0.0002
   113 C12    *d1+      -0.0006    0.0113   -0.0014    0.0002   -0.0012   -0.0035
   114 C12    *d2+       0.0211    0.0044   -0.0025   -0.0011    0.0016   -0.0005
   115 H13    1s        -0.3258    0.0978   -0.0025   -0.0036    0.0162   -0.0041
   116 H13    *s         0.0604   -0.0177    0.0207   -0.0006   -0.0288   -0.0058
   117 H13    *px        0.0007    0.0069    0.0008   -0.0001   -0.0005   -0.0010
   118 H13    *py       -0.0105    0.0004   -0.0008   -0.0004    0.0002   -0.0005
   119 H13    *pz        0.0005   -0.0043    0.0007    0.0001   -0.0003    0.0004
   120 H14    1s         0.0454    0.0393    0.0316    0.0048   -0.0520   -0.0011
   121 H14    *s        -0.0165   -0.0127    0.0005   -0.0021   -0.0053   -0.0031
   122 H14    *px        0.0073    0.0057   -0.0021   -0.0016    0.0019   -0.0014
   123 H14    *py        0.0038   -0.0037   -0.0008   -0.0002    0.0006   -0.0002
   124 H14    *pz        0.0007   -0.0022    0.0015   -0.0007   -0.0014    0.0007
   125 H15    1s        -0.0290   -0.3395    0.0092    0.0074    0.0143    0.0150
   126 H15    *s         0.0048    0.0712   -0.0153   -0.0128   -0.0077    0.0254
   127 H15    *px        0.0058   -0.0032   -0.0017    0.0006    0.0020   -0.0001
   128 H15    *py        0.0059    0.0042    0.0010   -0.0000   -0.0003   -0.0006
   129 H15    *pz        0.0006    0.0090   -0.0008    0.0001   -0.0002   -0.0009
   130 H16    1s        -0.0469    0.0350   -0.0306    0.0061    0.0578   -0.0010
   131 H16    *s         0.0177   -0.0112   -0.0012   -0.0003    0.0059   -0.0027
   132 H16    *px        0.0048    0.0027   -0.0011    0.0006    0.0013    0.0005
   133 H16    *py        0.0070   -0.0055   -0.0018    0.0015    0.0019    0.0013
   134 H16    *pz       -0.0009   -0.0019   -0.0017   -0.0007    0.0013    0.0006
--
 
      Von Neumann Entropy (Root   1) =  0.32192
 

      Mulliken population analysis for root number:  1
      -----------------------------------------------
 
 
++    Molecular charges:
      ------------------
 
      Mulliken charges per centre and basis function type
      ---------------------------------------------------
 
                C1      C2      H3      H4      O5      O6      H7      C8      H9      H10     H11     C12   
      1s       2.0043  2.0039  1.2576  1.2664  2.0018  2.0011  1.0751  2.0040  1.2654  1.2661  1.2698  2.0039
      2s       1.3858  1.4509  0.0000  0.0000  1.8414  1.8707  0.0000  1.4506  0.0000  0.0000  0.0000  1.4507
      2px      1.0667  1.1626  0.0000  0.0000  1.6639  1.5898  0.0000  1.1563  0.0000  0.0000  0.0000  1.0952
      2pz      0.8893  1.1743  0.0000  0.0000  1.1273  1.1518  0.0000  1.1192  0.0000  0.0000  0.0000  1.1750
      2py      1.0538  1.1056  0.0000  0.0000  1.5619  1.6766  0.0000  1.1465  0.0000  0.0000  0.0000  1.1722
      *s      -0.1895 -0.4522 -0.3320 -0.3270  0.0406 -0.0710 -0.3266 -0.4526 -0.3295 -0.3285 -0.3213 -0.4535
      *px     -0.0736 -0.1778  0.0073  0.0209  0.0537 -0.0299  0.0334 -0.1769  0.0061  0.0210  0.0067 -0.1807
      *pz     -0.0896 -0.1835  0.0153  0.0055 -0.0471 -0.0747  0.0239 -0.1865  0.0048  0.0048  0.0170 -0.1864
      *py     -0.0796 -0.1788  0.0087  0.0042  0.0484  0.0336  0.0220 -0.1771  0.0198  0.0050  0.0068 -0.1757
      *d2+     0.0404  0.0180  0.0000  0.0000  0.0012  0.0015  0.0000  0.0175  0.0000  0.0000  0.0000  0.0173
      *d1+     0.0328  0.0053  0.0000  0.0000  0.0042  0.0053  0.0000  0.0084  0.0000  0.0000  0.0000  0.0098
      *d0      0.0313  0.0122  0.0000  0.0000  0.0029  0.0007  0.0000  0.0134  0.0000  0.0000  0.0000  0.0120
      *d1-     0.0380  0.0127  0.0000  0.0000  0.0053  0.0030  0.0000  0.0118  0.0000  0.0000  0.0000  0.0084
      *d2-     0.0255  0.0088  0.0000  0.0000  0.0018  0.0020  0.0000  0.0056  0.0000  0.0000  0.0000  0.0094
      Total    6.1358  5.9620  0.9569  0.9701  8.3073  8.1604  0.8278  5.9402  0.9666  0.9684  0.9790  5.9577
 
      N-E     -0.1358  0.0380  0.0431  0.0299 -0.3073 -0.1604  0.1722  0.0598  0.0334  0.0316  0.0210  0.0423
 
                H13     H14     H15     H16   
      1s       1.2659  1.2687  1.2564  1.2676
      2s       0.0000  0.0000  0.0000  0.0000
      2px      0.0000  0.0000  0.0000  0.0000
      2pz      0.0000  0.0000  0.0000  0.0000
      2py      0.0000  0.0000  0.0000  0.0000
      *s      -0.3291 -0.3247 -0.3347 -0.3258
      *px      0.0053  0.0070  0.0066  0.0067
      *pz      0.0056  0.0163  0.0155  0.0166
      *py      0.0198  0.0075  0.0092  0.0076
      *d2+     0.0000  0.0000  0.0000  0.0000
      *d1+     0.0000  0.0000  0.0000  0.0000
      *d0      0.0000  0.0000  0.0000  0.0000
      *d1-     0.0000  0.0000  0.0000  0.0000
[...]
 
            Freq.    3259.54   3267.63   3275.63   3286.16   3291.86   4110.02                                               
 
 
 Masses:
 =======
  12  12   1   1  17  17   1  12   1   1   1  12   1   1   1   1
 
 
 Frequencies:
 ============
                         1         2         3         4         5         6
 
            Freq.      i0.00     i0.00      0.00      0.00      0.00      0.00                                               
 
 
                         7         8         9        10        11        12
 
            Freq.      13.56     97.31    183.70    262.05    268.35    275.26                                               
 
 
                        13        14        15        16        17        18
 
            Freq.     364.85    366.90    426.17    496.22    506.01    705.44                                               
 
 
                        19        20        21        22        23        24
 
            Freq.     798.85    977.54    992.34   1000.21   1033.49   1126.70                                               
 
 
                        25        26        27        28        29        30
 
            Freq.    1129.59   1344.00   1357.58   1370.43   1424.36   1515.66                                               
 
 
                        31        32        33        34        35        36
 
            Freq.    1517.44   1539.55   1570.68   1585.71   1591.64   1596.46                                               
 
 
                        37        38        39        40        41        42
 
            Freq.    1601.59   1625.76   3183.32   3187.13   3196.17   3254.59                                               
 
 
                        43        44        45        46        47        48
 
            Freq.    3259.54   3267.63   3275.63   3286.16   3291.86   4116.52                                               
 
 
--
 
++ Principal components of the normal modes
   ----------------------------------------
 
   (Only contributions larger than 0.50 times the maximum are printed)
 
 
      Mode      1
        Frequency:           13.58 cm-1
      ---------------------------------
        Dihedral C1 O5 O6 H7     1.0000
      ---------------------------------
 
      Mode      2
        Frequency:           98.42 cm-1
      ---------------------------------
        Dihedral O5 C1 C8 H11    1.0000
        Dihedral O5 C1 C8 H10    0.9920
        Dihedral O5 C1 C8 H9     0.9916
        Dihedral O5 C1 C12 H15   0.9586
        Dihedral O5 C1 C12 H14   0.9572
        Dihedral O5 C1 C12 H13   0.9517
        Dihedral O5 C1 C2 H16    0.9416
        Dihedral H3 C2 C1 O5     0.9411
        Dihedral H4 C2 C1 O5     0.9349
        Dihedral C1 O5 O6 H7     0.8824
        Dihedral H11 C8 C1 C12   0.8589
        Dihedral C2 C1 C8 H11    0.8569
        Dihedral H10 C8 C1 C12   0.8520
        Dihedral H9 C8 C1 C12    0.8516
        Dihedral C2 C1 C8 H10    0.8500
        Dihedral C2 C1 C8 H9     0.8496
        Dihedral C2 C1 C12 H15   0.8306
        Dihedral C2 C1 C12 H14   0.8294
        Dihedral C8 C1 C12 H15   0.8257
        Dihedral C2 C1 C12 H13   0.8246
        Dihedral C8 C1 C12 H14   0.8245
        Dihedral C8 C1 C12 H13   0.8197
        Dihedral C12 C1 C2 H16   0.8141
        Dihedral H3 C2 C1 C12    0.8137
        Dihedral C8 C1 C2 H16    0.8121
        Dihedral H3 C2 C1 C8     0.8116
        Dihedral H4 C2 C1 C12    0.8084
        Dihedral H4 C2 C1 C8     0.8063
        Dihedral O6 O5 C1 C12    0.7066
        Dihedral C2 C1 O5 O6     0.7065
        Dihedral O6 O5 C1 C8     0.7035
      ---------------------------------
 
      Mode      3
        Frequency:          185.24 cm-1
      ---------------------------------
        Dihedral O5 C1 C8 H11   -1.0000
        Dihedral O5 C1 C8 H10   -0.9927
        Dihedral O5 C1 C8 H9    -0.9922
        Dihedral H11 C8 C1 C12  -0.8655
        Dihedral C2 C1 C8 H11   -0.8646
        Dihedral H10 C8 C1 C12  -0.8593
        Dihedral H9 C8 C1 C12   -0.8588
        Dihedral C2 C1 C8 H10   -0.8583
        Dihedral C2 C1 C8 H9    -0.8578
        Dihedral C1 O5 O6 H7    -0.7377
        Dihedral O5 C1 C12 H13  -0.5147
        Dihedral O5 C1 C12 H14  -0.5135
        Dihedral O5 C1 C12 H15  -0.5133
      ---------------------------------
 
      Mode      4
        Frequency:          262.47 cm-1
      ---------------------------------
        Dihedral O5 C1 C8 H11    1.0000
        Dihedral O5 C1 C8 H9     0.9944
        Dihedral O5 C1 C8 H10    0.9923
        Dihedral H11 C8 C1 C12   0.8688
        Dihedral C2 C1 C8 H11    0.8649
        Dihedral H9 C8 C1 C12    0.8640
        Dihedral H10 C8 C1 C12   0.8621
        Dihedral C2 C1 C8 H9     0.8601
        Dihedral C2 C1 C8 H10    0.8583
        Dihedral O5 C1 C2 H16   -0.8254
        Dihedral H4 C2 C1 O5    -0.8238
        Dihedral H3 C2 C1 O5    -0.8236
        Dihedral C12 C1 C2 H16  -0.7217
        Dihedral H4 C2 C1 C12   -0.7203
        Dihedral H3 C2 C1 C12   -0.7202
        Dihedral C8 C1 C2 H16   -0.7168
        Dihedral H4 C2 C1 C8    -0.7155
        Dihedral H3 C2 C1 C8    -0.7154
        Dihedral C1 O5 O6 H7    -0.5015
      ---------------------------------
 
      Mode      5
        Frequency:          270.40 cm-1
      ---------------------------------
        Dihedral O5 C1 C12 H14   1.0000
        Dihedral O5 C1 C12 H13   0.9954
        Dihedral O5 C1 C12 H15   0.9924
        Dihedral C2 C1 C12 H14   0.8993
        Dihedral C2 C1 C12 H13   0.8953
        Dihedral C2 C1 C12 H15   0.8929
        Dihedral C8 C1 C12 H14   0.8908
        Dihedral C8 C1 C12 H13   0.8868
        Dihedral C8 C1 C12 H15   0.8844
        Dihedral O5 C1 C2 H16   -0.5149
        Dihedral H4 C2 C1 O5    -0.5102
        Dihedral H3 C2 C1 O5    -0.5060
      ---------------------------------
 
      Mode      6
        Frequency:          276.22 cm-1
      ---------------------------------
        Dihedral O5 C1 C12 H15  -1.0000
        Dihedral O5 C1 C12 H13  -0.9924
        Dihedral O5 C1 C12 H14  -0.9912
        Dihedral H3 C2 C1 O5     0.8877
        Dihedral H4 C2 C1 O5     0.8807
        Dihedral O5 C1 C2 H16    0.8803
        Dihedral C2 C1 C12 H15  -0.8507
        Dihedral C8 C1 C12 H15  -0.8444
        Dihedral C2 C1 C12 H13  -0.8442
        Dihedral C2 C1 C12 H14  -0.8432
        Dihedral C8 C1 C12 H13  -0.8379
        Dihedral C8 C1 C12 H14  -0.8369
        Dihedral H3 C2 C1 C12    0.7531
        Dihedral H3 C2 C1 C8     0.7480
        Dihedral H4 C2 C1 C12    0.7471
        Dihedral C12 C1 C2 H16   0.7468
        Dihedral H4 C2 C1 C8     0.7421
        Dihedral C8 C1 C2 H16    0.7417
      ---------------------------------
 
      Mode      7
        Frequency:          366.71 cm-1
      ---------------------------------
        Angle C8 C1 C12          1.0000
        Angle C2 C1 C8          -0.7418
        Angle O5 C1 C12         -0.5217
      ---------------------------------
 
      Mode      8
        Frequency:          370.76 cm-1
      ---------------------------------
        Angle C2 C1 C8           1.0000
        Angle C2 C1 C12         -0.8244
        Bond O6 O5              -0.6780
        Angle C8 C1 C12          0.6255
        Angle O5 C1 C8          -0.5481
        Angle C1 O5 O6          -0.5315
      ---------------------------------
 
      Mode      9
        Frequency:          428.79 cm-1
      ---------------------------------
        Angle C2 C1 C12         -1.0000
        Angle O5 C1 C8           0.8275
      ---------------------------------
 
      Mode     10
        Frequency:          500.05 cm-1
      ---------------------------------
        Angle O5 C1 C12          1.0000
        Angle C2 C1 O5          -0.9114
        Dihedral C1 O5 O6 H7    -0.7282
        Angle C2 C1 C8          -0.6315
        Dihedral C2 C1 O5 O6     0.6276
        Dihedral O6 O5 C1 C12    0.6171
        Angle C8 C1 C12          0.5482
      ---------------------------------
 
      Mode     11
        Frequency:          511.20 cm-1
      ---------------------------------
        Bond O6 O5               1.0000
        Angle C2 C1 O5          -0.7860
        Angle C8 C1 C12          0.6709
        Angle O5 C1 C12         -0.6546
        Angle C2 C1 C8           0.6190
        Angle C1 O5 O6           0.5043
      ---------------------------------
 
      Mode     12
        Frequency:          723.22 cm-1
      ---------------------------------
        Bond O6 O5              -1.0000
      ---------------------------------
 
      Mode     13
        Frequency:          804.18 cm-1
      ---------------------------------
        Bond C12 C1             -1.0000
        Bond C2 C1              -0.9997
        Bond C8 C1              -0.8677
        Bond O6 O5               0.7161
        Bond O5 C1              -0.6444
      ---------------------------------
 
      Mode     14
        Frequency:          985.24 cm-1
      ---------------------------------
        Bond O5 C1               1.0000
        Bond C8 C1              -0.7655
        Angle C1 C2 H16          0.5597
        Angle C1 C12 H14         0.5577
        Angle C1 C2 H3          -0.5531
        Angle C1 C12 H15        -0.5169
      ---------------------------------
 
      Mode     15
        Frequency:          992.41 cm-1
      ---------------------------------
        Angle C1 C2 H16          1.0000
        Angle C1 C12 H14        -0.9404
        Bond C2 C1               0.9029
        Angle C1 C12 H13         0.8301
        Bond C12 C1             -0.7935
        Angle C1 C2 H4          -0.7604
        Angle C1 C8 H9           0.7433
        Angle C1 C8 H10         -0.6299
      ---------------------------------
 
      Mode     16
        Frequency:         1001.68 cm-1
      ---------------------------------
        Angle C1 C8 H11         -1.0000
        Angle C1 C8 H10          0.5166
      ---------------------------------
 
      Mode     17
        Frequency:         1033.50 cm-1
      ---------------------------------
        Angle C1 C2 H3           1.0000
        Angle C1 C12 H15        -0.9833
        Angle C1 C8 H9          -0.9646
        Angle C1 C8 H10          0.9484
        Angle C1 C2 H4          -0.9440
        Angle C1 C12 H13         0.9256
      ---------------------------------
 
      Mode     18
        Frequency:         1127.14 cm-1
      ---------------------------------
        Angle C1 C2 H16          1.0000
        Angle C1 C8 H10          0.7968
        Angle C1 C12 H15         0.7397
        Angle C1 C2 H4          -0.6722
        Angle C1 C8 H11         -0.5582
      ---------------------------------
 
      Mode     19
        Frequency:         1130.08 cm-1
      ---------------------------------
        Angle C1 C12 H14         1.0000
        Angle C1 C8 H9           0.8317
        Angle C1 C12 H13        -0.8298
        Angle C1 C8 H11         -0.7820
        Angle C1 C2 H3           0.6764
        Angle C1 C2 H4          -0.5561
      ---------------------------------
 
      Mode     20
        Frequency:         1344.57 cm-1
      ---------------------------------
        Angle O5 O6 H7          -1.0000
        Angle C1 C12 H14         0.9996
        Angle C1 C2 H16          0.9779
        Angle C1 C8 H11          0.9360
        Bond O5 C1              -0.8448
        Angle H13 C12 H15       -0.6733
        Angle H3 C2 H4          -0.6587
        Angle O5 C1 C8           0.6372
        Angle H9 C8 H10         -0.6058
        Angle O5 C1 C12          0.5841
        Angle C2 C1 O5           0.5734
        Angle C2 C1 C12         -0.5661
      ---------------------------------
 
      Mode     21
        Frequency:         1359.18 cm-1
      ---------------------------------
        Angle O5 O6 H7           1.0000
        Angle C1 C2 H3          -0.7173
        Angle C1 C12 H15        -0.7154
        Bond C8 C1               0.6734
        Angle H13 C12 H14        0.5012
      ---------------------------------
 
      Mode     22
        Frequency:         1370.60 cm-1
      ---------------------------------
        Angle C1 C8 H9          -1.0000
        Angle C1 C8 H10          0.9821
        Angle C1 C12 H13        -0.9314
        Bond C2 C1               0.9187
        Angle C1 C2 H4           0.9120
        Bond C12 C1             -0.8990
        Angle H14 C12 H15        0.7507
        Angle H3 C2 H16         -0.7238
        Angle C8 C1 C12          0.7064
        Angle C2 C1 C8          -0.7032
        Angle H10 C8 H11         0.6715
        Angle H9 C8 H11         -0.6683
        Angle O5 C1 C12          0.6590
        Angle C2 C1 O5          -0.6558
      ---------------------------------
 
      Mode     23
        Frequency:         1428.89 cm-1
      ---------------------------------
        Angle O5 O6 H7           1.0000
      ---------------------------------
 
      Mode     24
        Frequency:         1515.92 cm-1
      ---------------------------------
        Angle H9 C8 H11          1.0000
        Angle C1 C8 H11         -0.9578
        Angle H9 C8 H10          0.8851
        Angle H10 C8 H11         0.8512
        Angle C1 C8 H10         -0.7911
        Angle C1 C8 H9          -0.7745
        Angle H3 C2 H16         -0.7704
        Bond C8 C1               0.6399
        Angle H14 C12 H15       -0.6089
        Angle C1 C2 H4           0.5471
      ---------------------------------
 
      Mode     25
        Frequency:         1517.45 cm-1
      ---------------------------------
        Angle H4 C2 H16         -1.0000
        Angle H13 C12 H14        0.9692
        Angle C1 C12 H14        -0.7961
        Angle C1 C2 H16          0.7718
        Angle H13 C12 H15        0.7574
        Angle C1 C2 H3           0.7545
        Angle C1 C12 H15        -0.7468
        Angle H3 C2 H4          -0.6677
        Angle C1 C12 H13        -0.6368
        Angle H14 C12 H15        0.6365
        Angle H3 C2 H16         -0.5899
        Bond C12 C1              0.5715
        Angle C1 C2 H4           0.5539
        Bond C2 C1              -0.5115
      ---------------------------------
 
      Mode     26
        Frequency:         1539.56 cm-1
      ---------------------------------
        Angle H13 C12 H14        1.0000
        Angle H14 C12 H15        0.8997
        Angle H4 C2 H16          0.8887
        Angle H3 C2 H16          0.8821
        Angle H9 C8 H11          0.8251
        Angle H10 C8 H11         0.8055
        Angle C1 C12 H13        -0.7726
        Angle C1 C12 H15        -0.7255
        Angle C1 C2 H4          -0.7144
        Angle C1 C12 H14        -0.7093
        Angle C1 C2 H3          -0.6569
        Angle C1 C2 H16         -0.6493
        Angle C1 C8 H10         -0.6248
        Angle C1 C8 H9          -0.6185
        Angle C1 C8 H11         -0.5412
      ---------------------------------
 
      Mode     27
        Frequency:         1570.68 cm-1
      ---------------------------------
        Angle H13 C12 H14        1.0000
        Angle H4 C2 H16         -0.9978
        Angle H9 C8 H11         -0.9787
        Angle H10 C8 H11         0.9460
        Angle H14 C12 H15       -0.8336
        Angle H3 C2 H16          0.8257
      ---------------------------------
 
      Mode     28
        Frequency:         1585.71 cm-1
      ---------------------------------
        Angle H3 C2 H4           1.0000
        Angle H9 C8 H11          0.7478
        Angle H9 C8 H10         -0.7460
        Angle H3 C2 H16         -0.5093
      ---------------------------------
 
      Mode     29
        Frequency:         1591.65 cm-1
      ---------------------------------
        Angle H13 C12 H15       -1.0000
        Angle H9 C8 H10          0.7888
        Angle H10 C8 H11        -0.6908
      ---------------------------------
 
      Mode     30
        Frequency:         1596.50 cm-1
      ---------------------------------
        Angle H4 C2 H16          1.0000
        Angle H13 C12 H14        0.7627
        Angle H14 C12 H15       -0.7116
        Angle H3 C2 H16         -0.6732
      ---------------------------------
 
      Mode     31
        Frequency:         1601.60 cm-1
      ---------------------------------
        Angle H10 C8 H11        -1.0000
        Angle H3 C2 H16          0.9336
        Angle H14 C12 H15       -0.9046
        Angle H9 C8 H11          0.8682
        Angle H3 C2 H4          -0.6186
        Angle H13 C12 H15        0.5069
      ---------------------------------
 
      Mode     32
        Frequency:         1625.81 cm-1
      ---------------------------------
        Angle H9 C8 H10          1.0000
        Angle H3 C2 H4           0.9325
        Angle H13 C12 H15        0.9264
      ---------------------------------
 
      Mode     33
        Frequency:         3183.32 cm-1
      ---------------------------------
        Bond H16 C2              1.0000
        Bond H4 C2               0.9145
        Bond H14 C12            -0.8421
        Bond H13 C12            -0.7062
        Bond H3 C2               0.5843
      ---------------------------------
 
      Mode     34
        Frequency:         3187.13 cm-1
      ---------------------------------
        Bond H10 C8              1.0000
        Bond H9 C8               0.9645
        Bond H11 C8              0.9484
        Bond H14 C12            -0.7329
        Bond H13 C12            -0.6457
      ---------------------------------
 
      Mode     35
        Frequency:         3196.17 cm-1
      ---------------------------------
        Bond H14 C12            -1.0000
        Bond H10 C8             -0.9095
        Bond H9 C8              -0.8646
        Bond H13 C12            -0.8585
        Bond H16 C2             -0.8373
        Bond H4 C2              -0.8065
        Bond H11 C8             -0.7934
        Bond H15 C12            -0.5903
        Bond H3 C2              -0.5145
      ---------------------------------
 
      Mode     36
        Frequency:         3254.59 cm-1
      ---------------------------------
        Bond H4 C2               1.0000
        Bond H16 C2             -0.9900
      ---------------------------------
 
      Mode     37
        Frequency:         3259.54 cm-1
      ---------------------------------
        Bond H13 C12             1.0000
        Bond H14 C12            -0.9417
      ---------------------------------
 
      Mode     38
        Frequency:         3267.63 cm-1
      ---------------------------------
        Bond H10 C8              1.0000
        Bond H9 C8              -0.8949
      ---------------------------------
 
      Mode     39
        Frequency:         3275.63 cm-1
      ---------------------------------
        Bond H11 C8             -1.0000
        Bond H9 C8               0.6013
      ---------------------------------
 
      Mode     40
        Frequency:         3286.16 cm-1
      ---------------------------------
        Bond H15 C12             1.0000
        Bond H3 C2              -0.9592
      ---------------------------------
 
      Mode     41
        Frequency:         3291.86 cm-1
      ---------------------------------
        Bond H3 C2               1.0000
        Bond H15 C12             0.9439
      ---------------------------------
 
      Mode     42
        Frequency:         4123.87 cm-1
      ---------------------------------
        Bond H7 O6               1.0000
      ---------------------------------
--
 
--- Stop Module: slapaf at Thu Jul  9 14:13:09 2026 /rc=_RC_ALL_IS_WELL_ ---
*** files: tbhp_s0_sa4_casscf_hessian.freq.molden tbhp_s0_sa4_casscf_hessian.slapaf.h5 xmldump
    saved to directory /vscratch/grp-cyberwksp21/hclifford/Tutorials_PySpawn/TBHP/hessian_generate
--- Module slapaf spent 1 second ---

>>> END DO

>>> EXPORT MOLCAS_TRAP = UNKNOWN_VARIABLE

>>> EXPORT MOLCAS_MAXITER = UNKNOWN_VARIABLE

.##################.
.# Happy landing! #.
.##################.

    Timing: Wall=4414.68 User=3214.48 System=846.79
